************************************************************
This is node12.cluster of cluster Pinconning.
Date: Mon May  4 16:54:43 PDT 2020
************************************************************
 Set GAUSS_MDEF to "32GB".
 Set GAUSS_PDEF to "12".
 Entering Gaussian System, Link 0=gdv
 Initial command:
 /opt/gaussian/gdv-20191001-j04+/gdv/l1.exe "/tmp/720712.1.allnodes.q/Gau-8867.inp" -scrdir="/tmp/720712.1.allnodes.q/"
 Default is to use a total of  12 processors:
                               12 via shared-memory
                                1 via Linda
 Entering Link 1 = /opt/gaussian/gdv-20191001-j04+/gdv/l1.exe PID=      8868.
  
 Copyright (c) 1988-2019, Gaussian, Inc.  All Rights Reserved.
  
 This is the private, development version of
 the Gaussian(R) DV system of programs. It is based on
 the Gaussian(R) 16 system (copyright 2016, Gaussian, Inc.),
 the Gaussian(R) 09 system (copyright 2009, Gaussian, Inc.),
 the Gaussian(R) 03 system (copyright 2003, Gaussian, Inc.),
 the Gaussian(R) 98 system (copyright 1998, Gaussian, Inc.),
 the Gaussian(R) 94 system (copyright 1995, Gaussian, Inc.),
 the Gaussian 92(TM) system (copyright 1992, Gaussian, Inc.),
 the Gaussian 90(TM) system (copyright 1990, Gaussian, Inc.),
 the Gaussian 88(TM) system (copyright 1988, Gaussian, Inc.),
 the Gaussian 86(TM) system (copyright 1986, Carnegie Mellon
 University), and the Gaussian 82(TM) system (copyright 1983,
 Carnegie Mellon University). Gaussian is a federally registered
 trademark of Gaussian, Inc.
  
 This software contains proprietary and confidential information,
 including trade secrets, belonging to Gaussian, Inc.
  
 This software is provided under written license and may be
 used, copied, transmitted, or stored only in accord with that
 written license.
  
 The following legend is applicable only to US Government
 contracts under FAR:
  
                    RESTRICTED RIGHTS LEGEND
  
 Use, reproduction and disclosure by the US Government is
 subject to restrictions as set forth in subparagraphs (a)
 and (c) of the Commercial Computer Software - Restricted
 Rights clause in FAR 52.227-19.
  
 Gaussian, Inc.
 340 Quinnipiac St., Bldg. 40, Wallingford CT 06492
  
  
 ---------------------------------------------------------------
 Warning -- This program may not be used in any manner that
 competes with the business of Gaussian, Inc. or will provide
 assistance to any competitor of Gaussian, Inc.  The licensee
 of this program is prohibited from giving any competitor of
 Gaussian, Inc. access to this program.  By using this program,
 the user acknowledges that Gaussian, Inc. is engaged in the
 business of creating and licensing software in the field of
 computational chemistry and represents and warrants to the
 licensee that it is not a competitor of Gaussian, Inc. and that
 it will not use this program in any manner prohibited above.
 ---------------------------------------------------------------
  

 Cite this work as:
 Gaussian Development Version, Revision J.04+,
 M. J. Frisch, G. W. Trucks, H. B. Schlegel, G. E. Scuseria, 
 M. A. Robb, J. R. Cheeseman, G. Scalmani, V. Barone, 
 G. A. Petersson, H. Nakatsuji, X. Li, M. Caricato, A. V. Marenich, 
 J. Bloino, B. G. Janesko, R. Gomperts, B. Mennucci, H. P. Hratchian, 
 J. V. Ortiz, A. F. Izmaylov, J. L. Sonnenberg, D. Williams-Young, 
 F. Ding, F. Lipparini, F. Egidi, J. Goings, B. Peng, A. Petrone, 
 T. Henderson, D. Ranasinghe, V. G. Zakrzewski, J. Gao, N. Rega, 
 G. Zheng, W. Liang, M. Hada, M. Ehara, K. Toyota, R. Fukuda, 
 J. Hasegawa, M. Ishida, T. Nakajima, Y. Honda, O. Kitao, H. Nakai, 
 T. Vreven, K. Throssell, J. A. Montgomery, Jr., J. E. Peralta, 
 F. Ogliaro, M. J. Bearpark, J. J. Heyd, E. N. Brothers, K. N. Kudin, 
 V. N. Staroverov, T. A. Keith, R. Kobayashi, J. Normand, 
 K. Raghavachari, A. P. Rendell, J. C. Burant, S. S. Iyengar, 
 J. Tomasi, M. Cossi, J. M. Millam, M. Klene, C. Adamo, R. Cammi, 
 J. W. Ochterski, R. L. Martin, K. Morokuma, O. Farkas, 
 J. B. Foresman, and D. J. Fox, Gaussian, Inc., Wallingford CT, 2019.
 
 *******************************************
 Gaussian DV:  ES64L-GDVRevJ.04+ 11-Sep-2019
                  4-May-2020 
 *******************************************
 %chk=butene
 ------------------------------------------------------------------
 #P ub3lyp def2tzvp pop=orbitals=20 integral=superfinegrid opt freq
 ------------------------------------------------------------------
 1/18=20,19=15,26=5,38=1/1,3;
 2/9=110,12=2,17=6,18=5,40=1/2;
 3/5=44,7=101,11=2,25=1,30=1,71=1,74=-5,75=-7,116=2/1,2,3;
 4//1;
 5/5=2,38=5/2;
 6/7=2,8=2,9=2,10=2,28=1,96=20/1;
 7//1,2,3,16;
 1/18=20,19=15,26=5/3(2);
 2/9=110/2;
 99//99;
 2/9=110/2;
 3/5=44,7=101,11=2,25=1,30=1,71=1,74=-5,75=-7,116=2/1,2,3;
 4/5=5,16=3,69=1/1;
 5/5=2,38=5/2;
 7//1,2,3,16;
 1/18=20,19=15,26=5/3(-5);
 2/9=110/2;
 6/7=2,8=2,9=2,10=2,19=2,28=1,96=20/1;
 99/9=1/99;
 Leave Link    1 at Mon May  4 16:54:43 2020, MaxMem=           0 cpu:               0.8 elap:               0.1
 (Enter /opt/gaussian/gdv-20191001-j04+/gdv/l101.exe)
 -----
 title
 -----
 Symbolic Z-matrix:
 Charge =  0 Multiplicity = 1
 C                     0.59163  -1.45774   0.0429 
 H                     0.69146  -2.5061    0.03909 
 H                     1.43023  -0.89308   0.13864 
 C                    -0.59693  -0.84511  -0.07352 
 H                    -1.43553  -1.40977  -0.16926 
 C                    -0.74061   0.66375  -0.06803 
 H                    -1.48701   1.07329  -0.14081 
 H                    -1.14592   0.80073   1.07476 
 C                     0.60819   1.36457  -0.02987 
 H                     0.48859   2.41036   0.16226 
 H                     1.28735   0.94629   0.68336 
 H                     0.99715   1.22546  -1.01691 
 
 ITRead=  0  0  0  0  0  0  0  0  0  0  0  0
 MicOpt= -1 -1 -1 -1 -1 -1 -1 -1 -1 -1 -1 -1
 NAtoms=     12 NQM=       12 NQMF=       0 NMMI=      0 NMMIF=      0
                NMic=       0 NMicF=      0.
                    Isotopes and Nuclear Properties:
 (Nuclear quadrupole moments (NQMom) in fm**2, nuclear magnetic moments (NMagM)
  in nuclear magnetons)

  Atom         1           2           3           4           5           6           7           8           9          10
 IAtWgt=          12           1           1          12           1          12           1           1          12           1
 AtmWgt=  12.0000000   1.0078250   1.0078250  12.0000000   1.0078250  12.0000000   1.0078250   1.0078250  12.0000000   1.0078250
 NucSpn=           0           1           1           0           1           0           1           1           0           1
 AtZEff=  -0.0000000  -0.0000000  -0.0000000  -0.0000000  -0.0000000  -0.0000000  -0.0000000  -0.0000000  -0.0000000  -0.0000000
 NQMom=    0.0000000   0.0000000   0.0000000   0.0000000   0.0000000   0.0000000   0.0000000   0.0000000   0.0000000   0.0000000
 NMagM=    0.0000000   2.7928460   2.7928460   0.0000000   2.7928460   0.0000000   2.7928460   2.7928460   0.0000000   2.7928460
 AtZNuc=   6.0000000   1.0000000   1.0000000   6.0000000   1.0000000   6.0000000   1.0000000   1.0000000   6.0000000   1.0000000

  Atom        11          12
 IAtWgt=           1           1
 AtmWgt=   1.0078250   1.0078250
 NucSpn=           1           1
 AtZEff=  -0.0000000  -0.0000000
 NQMom=    0.0000000   0.0000000
 NMagM=    2.7928460   2.7928460
 AtZNuc=   1.0000000   1.0000000
 Leave Link  101 at Mon May  4 16:54:44 2020, MaxMem=  4294967296 cpu:               5.0 elap:               0.5
 (Enter /opt/gaussian/gdv-20191001-j04+/gdv/l103.exe)

 GradGradGradGradGradGradGradGradGradGradGradGradGradGradGradGradGradGrad
 Berny optimization.
 Initialization pass.
                           ----------------------------
                           !    Initial Parameters    !
                           ! (Angstroms and Degrees)  !
 --------------------------                            --------------------------
 ! Name  Definition              Value          Derivative Info.                !
 --------------------------------------------------------------------------------
 ! R1    R(1,2)                  1.0531         estimate D2E/DX2                !
 ! R2    R(1,3)                  1.0155         estimate D2E/DX2                !
 ! R3    R(1,4)                  1.3422         estimate D2E/DX2                !
 ! R4    R(4,5)                  1.0155         estimate D2E/DX2                !
 ! R5    R(4,6)                  1.5157         estimate D2E/DX2                !
 ! R6    R(6,7)                  0.8545         estimate D2E/DX2                !
 ! R7    R(6,8)                  1.2203         estimate D2E/DX2                !
 ! R8    R(6,9)                  1.5205         estimate D2E/DX2                !
 ! R9    R(9,10)                 1.07           estimate D2E/DX2                !
 ! R10   R(9,11)                 1.07           estimate D2E/DX2                !
 ! R11   R(9,12)                 1.07           estimate D2E/DX2                !
 ! A1    A(2,1,3)              118.3976         estimate D2E/DX2                !
 ! A2    A(2,1,4)              122.5478         estimate D2E/DX2                !
 ! A3    A(3,1,4)              119.0546         estimate D2E/DX2                !
 ! A4    A(1,4,5)              119.0546         estimate D2E/DX2                !
 ! A5    A(1,4,6)              122.5478         estimate D2E/DX2                !
 ! A6    A(5,4,6)              118.3976         estimate D2E/DX2                !
 ! A7    A(4,6,7)              124.0305         estimate D2E/DX2                !
 ! A8    A(4,6,8)               98.4316         estimate D2E/DX2                !
 ! A9    A(4,6,9)              112.0142         estimate D2E/DX2                !
 ! A10   A(7,6,8)               74.6817         estimate D2E/DX2                !
 ! A11   A(7,6,9)              123.7866         estimate D2E/DX2                !
 ! A12   A(8,6,9)              102.6736         estimate D2E/DX2                !
 ! A13   A(6,9,10)             110.845          estimate D2E/DX2                !
 ! A14   A(6,9,11)             113.5539         estimate D2E/DX2                !
 ! A15   A(6,9,12)             103.8505         estimate D2E/DX2                !
 ! A16   A(10,9,11)            109.4712         estimate D2E/DX2                !
 ! A17   A(10,9,12)            109.4712         estimate D2E/DX2                !
 ! A18   A(11,9,12)            109.4712         estimate D2E/DX2                !
 ! D1    D(2,1,4,5)              0.0            estimate D2E/DX2                !
 ! D2    D(2,1,4,6)            180.0            estimate D2E/DX2                !
 ! D3    D(3,1,4,5)            180.0            estimate D2E/DX2                !
 ! D4    D(3,1,4,6)              0.0            estimate D2E/DX2                !
 ! D5    D(1,4,6,7)            180.0            estimate D2E/DX2                !
 ! D6    D(1,4,6,8)           -102.8359         estimate D2E/DX2                !
 ! D7    D(1,4,6,9)              4.5717         estimate D2E/DX2                !
 ! D8    D(5,4,6,7)              0.0            estimate D2E/DX2                !
 ! D9    D(5,4,6,8)             77.1641         estimate D2E/DX2                !
 ! D10   D(5,4,6,9)           -175.4283         estimate D2E/DX2                !
 ! D11   D(4,6,9,10)          -169.119          estimate D2E/DX2                !
 ! D12   D(4,6,9,11)           -45.4025         estimate D2E/DX2                !
 ! D13   D(4,6,9,12)            73.4138         estimate D2E/DX2                !
 ! D14   D(7,6,9,10)            15.4396         estimate D2E/DX2                !
 ! D15   D(7,6,9,11)           139.1562         estimate D2E/DX2                !
 ! D16   D(7,6,9,12)          -102.0276         estimate D2E/DX2                !
 ! D17   D(8,6,9,10)           -64.4621         estimate D2E/DX2                !
 ! D18   D(8,6,9,11)            59.2544         estimate D2E/DX2                !
 ! D19   D(8,6,9,12)           178.0706         estimate D2E/DX2                !
 --------------------------------------------------------------------------------
 Trust Radius=3.00D-01 FncErr=1.00D-07 GrdErr=1.00D-07 EigMax=2.50D+02 EigMin=1.00D-04
 Number of steps in this run=     58 maximum allowed number of steps=    100.
 GradGradGradGradGradGradGradGradGradGradGradGradGradGradGradGradGradGrad

 Leave Link  103 at Mon May  4 16:54:44 2020, MaxMem=  4294967296 cpu:               0.1 elap:               0.0
 (Enter /opt/gaussian/gdv-20191001-j04+/gdv/l202.exe)
                          Input orientation:                          
 ---------------------------------------------------------------------
 Center     Atomic      Atomic             Coordinates (Angstroms)
 Number     Number       Type             X           Y           Z
 ---------------------------------------------------------------------
      1          6           0        0.591633   -1.457737    0.042900
      2          1           0        0.691465   -2.506097    0.039087
      3          1           0        1.430232   -0.893077    0.138636
      4          6           0       -0.596929   -0.845108   -0.073522
      5          1           0       -1.435528   -1.409767   -0.169258
      6          6           0       -0.740614    0.663747   -0.068034
      7          1           0       -1.487007    1.073294   -0.140807
      8          1           0       -1.145923    0.800728    1.074765
      9          6           0        0.608189    1.364566   -0.029866
     10          1           0        0.488588    2.410359    0.162261
     11          1           0        1.287349    0.946287    0.683356
     12          1           0        0.997148    1.225461   -1.016912
 ---------------------------------------------------------------------
                    Distance matrix (angstroms):
                    1          2          3          4          5
     1  C    0.000000
     2  H    1.053110   0.000000
     3  H    1.015506   1.776941   0.000000
     4  C    1.342218   2.105119   2.038797   0.000000
     5  H    2.038797   2.401967   2.928198   1.015506   0.000000
     6  C    2.507565   3.479977   2.679363   1.515691   2.189203
     7  H    3.280337   4.194061   3.529163   2.115900   2.483758
     8  H    3.030596   3.922209   3.222094   2.080561   2.552989
     9  C    2.823289   3.872173   2.408548   2.517316   3.448642
    10  H    3.871309   4.922182   3.435105   3.439769   4.290162
    11  H    2.583318   3.562179   1.923642   2.707852   3.700269
    12  H    2.913279   3.890129   2.451746   2.778187   3.685221
                    6          7          8          9         10
     6  C    0.000000
     7  H    0.854475   0.000000
     8  H    1.220258   1.291605   0.000000
     9  C    1.520485   2.118253   2.148263   0.000000
    10  H    2.148168   2.404697   2.468846   1.070000   0.000000
    11  H    2.181065   2.896968   2.468846   1.070000   1.747303
    12  H    2.058084   2.638512   3.024610   1.070000   1.747303
                   11         12
    11  H    0.000000
    12  H    1.747303   0.000000
 Stoichiometry    C4H8
 Framework group  C1[X(C4H8)]
 Deg. of freedom    30
 Full point group                 C1      NOp   1
 Largest Abelian subgroup         C1      NOp   1
 Largest concise Abelian subgroup C1      NOp   1
                         Standard orientation:                         
 ---------------------------------------------------------------------
 Center     Atomic      Atomic             Coordinates (Angstroms)
 Number     Number       Type             X           Y           Z
 ---------------------------------------------------------------------
      1          6           0       -1.457737   -0.591633    0.042900
      2          1           0       -2.506097   -0.691465    0.039087
      3          1           0       -0.893077   -1.430232    0.138636
      4          6           0       -0.845108    0.596929   -0.073522
      5          1           0       -1.409767    1.435528   -0.169258
      6          6           0        0.663747    0.740614   -0.068034
      7          1           0        1.073294    1.487007   -0.140807
      8          1           0        0.800728    1.145923    1.074765
      9          6           0        1.364566   -0.608189   -0.029866
     10          1           0        2.410359   -0.488588    0.162261
     11          1           0        0.946287   -1.287349    0.683356
     12          1           0        1.225461   -0.997148   -1.016912
 ---------------------------------------------------------------------
 Rotational constants (GHZ):          15.0939841           6.0327388           4.5343570
 Leave Link  202 at Mon May  4 16:54:44 2020, MaxMem=  4294967296 cpu:               0.1 elap:               0.0
 (Enter /opt/gaussian/gdv-20191001-j04+/gdv/l301.exe)
 Standard basis: def2TZVP (5D, 7F)
 Ernie: Thresh=  0.10000D-02 Tol=  0.10000D-05 Strict=F.
 There are   192 symmetry adapted cartesian basis functions of A   symmetry.
 There are   172 symmetry adapted basis functions of A   symmetry.
   172 basis functions,   268 primitive gaussians,   192 cartesian basis functions
    16 alpha electrons       16 beta electrons
       nuclear repulsion energy       121.4607892816 Hartrees.
 IExCor=  402 DFT=T Ex+Corr=B3LYP ScaHFX=  0.200000
 ScaDFX=  0.800000  0.720000  1.000000  0.810000  1.000000  0.000000
 ScaDFX=  0.000000  0.000000  0.000000  0.000000  0.000000  0.000000
 IRadAn=      7 IRanWt=     -1 IRanGd=            0 ICorTp=0 IEmpDi=  4
 NAtoms=   12 NActive=   12 NUniq=   12 SFac= 1.00D+00 NAtFMM=   60 NAOKFM=F Big=F
 Integral buffers will be    131072 words long.
 Raffenetti 2 integral format.
 Two-electron integral symmetry is turned on.
 Leave Link  301 at Mon May  4 16:54:44 2020, MaxMem=  4294967296 cpu:               0.9 elap:               0.1
 (Enter /opt/gaussian/gdv-20191001-j04+/gdv/l302.exe)
 NPDir=0 NMtPBC=     1 NCelOv=     1 NCel=       1 NClECP=     1 NCelD=      1
         NCelK=      1 NCelE2=     1 NClLst=     1 CellRange=     0.0.
 One-electron integrals computed using PRISM.
 One-electron integral symmetry used in STVInt
   1 Symmetry operations used in ECPInt.
 ECPInt:  NShTT=    2926 NPrTT=    8368 LenC2=    2918 LenP2D=    7270.
 LDataN:  DoStor=T MaxTD1= 6 Len=  172
 NBasis=   172 RedAO= T EigKep=  1.57D-04  NBF=   172
 NBsUse=   172 1.00D-06 EigRej= -1.00D+00 NBFU=   172
 Precomputing XC quadrature grid using
 IXCGrd= 4 IRadAn=           7 IRanWt=          -1 IRanGd=           0 AccXCQ= 0.00D+00.
 Generated NRdTot=       0 NPtTot=           0 NUsed=           0 NTot=          32
 NSgBfM=   192   192   192   192   192 MxSgAt=    12 MxSgA2=    12 SizInc=   0.000.
 Leave Link  302 at Mon May  4 16:54:44 2020, MaxMem=  4294967296 cpu:               3.5 elap:               0.3
 (Enter /opt/gaussian/gdv-20191001-j04+/gdv/l303.exe)
 DipDrv:  MaxL=1.
 Leave Link  303 at Mon May  4 16:54:44 2020, MaxMem=  4294967296 cpu:               0.4 elap:               0.1
 (Enter /opt/gaussian/gdv-20191001-j04+/gdv/l401.exe)
 ExpMin= 9.52D-02 ExpMax= 1.36D+04 ExpMxC= 4.63D+02 IAcc=3 IRadAn=         7 AccDes= 0.00D+00
 Harris functional with IExCor=  402 and IRadAn=       7 diagonalized for initial guess.
 HarFok:  IExCor=  402 AccDes= 0.00D+00 IRadAn=         7 IDoV= 1 UseB2=F ITyADJ=14 ICtDFT=  3500011
 ScaDFX=  1.000000  1.000000  1.000000  1.000000  1.000000  1.000000
 ScaDFX=  1.000000  1.000000  1.000000  1.000000  1.000000  1.000000
 FoFCou: FMM=F IPFlag=           0 FMFlag=      100000 FMFlg1=           0
         NFxFlg=           0 DoJE=T BraDBF=F KetDBF=T FulRan=T
         wScrn=  0.000000 ICntrl=       500 IOpCl=  0 I1Cent=   200000004 NGrid=           0
         NMat0=    1 NMatS0=      1 NMatT0=    0 NMatD0=    1 NMtDS0=    0 NMtDT0=    0
 Petite list used in FoFCou.
 Harris En= -157.276584328135    
 JPrj=0 DoOrth=F DoCkMO=F.
 Initial guess <Sx>= 0.0000 <Sy>= 0.0000 <Sz>= 0.0000 <S**2>=-0.0000 S=-0.0000
 Leave Link  401 at Mon May  4 16:54:46 2020, MaxMem=  4294967296 cpu:              21.6 elap:               1.8
 (Enter /opt/gaussian/gdv-20191001-j04+/gdv/l502.exe)
 Keep R1 and R2 ints in memory in canonical form, NReq=233699348.
 FoFCou: FMM=F IPFlag=           0 FMFlag=           0 FMFlg1=           0
         NFxFlg=           0 DoJE=F BraDBF=F KetDBF=F FulRan=T
         wScrn=  0.000000 ICntrl=       600 IOpCl=  0 I1Cent=           0 NGrid=           0
         NMat0=    1 NMatS0=  14878 NMatT0=    0 NMatD0=    1 NMtDS0=    0 NMtDT0=    0
 Symmetry not used in FoFCou.
 Two-electron integral symmetry not used.
 UHF open shell SCF:
 Using DIIS extrapolation, IDIIS=  1040.
 NGot=  4294967296 LenX=  4073519206 LenY=  4073481901
 Requested convergence on RMS density matrix=1.00D-08 within 128 cycles.
 Requested convergence on MAX density matrix=1.00D-06.
 Requested convergence on             energy=1.00D-06.
 No special actions if energy rises.
 Integral accuracy reduced to 1.0D-05 until final iterations.

 Cycle   1  Pass 0  IDiag  1:
 E= -156.947986630386    
 DIIS: error= 2.57D-02 at cycle   1 NSaved=   1.
 NSaved= 1 IEnMin= 1 EnMin= -156.947986630386     IErMin= 1 ErrMin= 2.57D-02
 ErrMax= 2.57D-02  0.00D+00 EMaxC= 1.00D-01 BMatC= 8.72D-01 BMatP= 8.72D-01
 IDIUse=3 WtCom= 7.43D-01 WtEn= 2.57D-01
 Coeff-Com:  0.100D+01
 Coeff-En:   0.100D+01
 Coeff:      0.100D+01
 Gap=     0.244 Goal=   None    Shift=    0.000
 Gap=     0.244 Goal=   None    Shift=    0.000
 GapD=    0.244 DampG=1.000 DampE=0.500 DampFc=0.5000 IDamp=-1.
 Damping current iteration by 5.00D-01
 RMSDP=4.71D-03 MaxDP=1.82D-01              OVMax= 2.53D-01

 Cycle   2  Pass 0  IDiag  1:
 E= -157.043151476826     Delta-E=       -0.095164846440 Rises=F Damp=T
 DIIS: error= 7.36D-03 at cycle   2 NSaved=   2.
 NSaved= 2 IEnMin= 2 EnMin= -157.043151476826     IErMin= 2 ErrMin= 7.36D-03
 ErrMax= 7.36D-03  0.00D+00 EMaxC= 1.00D-01 BMatC= 3.99D-02 BMatP= 8.72D-01
 IDIUse=3 WtCom= 9.26D-01 WtEn= 7.36D-02
 Coeff-Com:  0.653D-01 0.935D+00
 Coeff-En:   0.149D+00 0.851D+00
 Coeff:      0.714D-01 0.929D+00
 Gap=     0.262 Goal=   None    Shift=    0.000
 Gap=     0.262 Goal=   None    Shift=    0.000
 RMSDP=1.16D-03 MaxDP=4.84D-02 DE=-9.52D-02 OVMax= 1.56D-01

 Cycle   3  Pass 0  IDiag  1:
 E= -157.167911040416     Delta-E=       -0.124759563590 Rises=F Damp=F
 DIIS: error= 5.43D-03 at cycle   3 NSaved=   3.
 NSaved= 3 IEnMin= 3 EnMin= -157.167911040416     IErMin= 3 ErrMin= 5.43D-03
 ErrMax= 5.43D-03  0.00D+00 EMaxC= 1.00D-01 BMatC= 1.05D-02 BMatP= 3.99D-02
 IDIUse=3 WtCom= 9.46D-01 WtEn= 5.43D-02
 Coeff-Com: -0.199D-01 0.306D+00 0.714D+00
 Coeff-En:   0.000D+00 0.000D+00 0.100D+01
 Coeff:     -0.188D-01 0.289D+00 0.730D+00
 Gap=     0.244 Goal=   None    Shift=    0.000
 Gap=     0.244 Goal=   None    Shift=    0.000
 RMSDP=3.49D-04 MaxDP=8.45D-03 DE=-1.25D-01 OVMax= 1.82D-02

 Cycle   4  Pass 0  IDiag  1:
 E= -157.170379680844     Delta-E=       -0.002468640428 Rises=F Damp=F
 DIIS: error= 1.18D-03 at cycle   4 NSaved=   4.
 NSaved= 4 IEnMin= 4 EnMin= -157.170379680844     IErMin= 4 ErrMin= 1.18D-03
 ErrMax= 1.18D-03  0.00D+00 EMaxC= 1.00D-01 BMatC= 8.73D-04 BMatP= 1.05D-02
 IDIUse=3 WtCom= 9.88D-01 WtEn= 1.18D-02
 Coeff-Com: -0.958D-02 0.478D-01 0.263D+00 0.698D+00
 Coeff-En:   0.000D+00 0.000D+00 0.000D+00 0.100D+01
 Coeff:     -0.947D-02 0.473D-01 0.260D+00 0.702D+00
 Gap=     0.245 Goal=   None    Shift=    0.000
 Gap=     0.245 Goal=   None    Shift=    0.000
 RMSDP=1.07D-04 MaxDP=2.53D-03 DE=-2.47D-03 OVMax= 6.50D-03

 Cycle   5  Pass 0  IDiag  1:
 E= -157.170572949158     Delta-E=       -0.000193268314 Rises=F Damp=F
 DIIS: error= 3.79D-04 at cycle   5 NSaved=   5.
 NSaved= 5 IEnMin= 5 EnMin= -157.170572949158     IErMin= 5 ErrMin= 3.79D-04
 ErrMax= 3.79D-04  0.00D+00 EMaxC= 1.00D-01 BMatC= 1.37D-04 BMatP= 8.73D-04
 IDIUse=3 WtCom= 9.96D-01 WtEn= 3.79D-03
 Coeff-Com: -0.372D-02 0.824D-02 0.944D-01 0.364D+00 0.537D+00
 Coeff-En:   0.000D+00 0.000D+00 0.000D+00 0.162D-01 0.984D+00
 Coeff:     -0.371D-02 0.820D-02 0.941D-01 0.363D+00 0.539D+00
 Gap=     0.245 Goal=   None    Shift=    0.000
 Gap=     0.245 Goal=   None    Shift=    0.000
 RMSDP=2.75D-05 MaxDP=8.13D-04 DE=-1.93D-04 OVMax= 2.41D-03

 Cycle   6  Pass 0  IDiag  1:
 E= -157.170604014747     Delta-E=       -0.000031065590 Rises=F Damp=F
 DIIS: error= 1.03D-04 at cycle   6 NSaved=   6.
 NSaved= 6 IEnMin= 6 EnMin= -157.170604014747     IErMin= 6 ErrMin= 1.03D-04
 ErrMax= 1.03D-04  0.00D+00 EMaxC= 1.00D-01 BMatC= 9.14D-06 BMatP= 1.37D-04
 IDIUse=3 WtCom= 9.99D-01 WtEn= 1.03D-03
 Coeff-Com: -0.106D-02 0.393D-03 0.308D-01 0.144D+00 0.279D+00 0.548D+00
 Coeff-En:   0.000D+00 0.000D+00 0.000D+00 0.000D+00 0.000D+00 0.100D+01
 Coeff:     -0.106D-02 0.392D-03 0.307D-01 0.143D+00 0.278D+00 0.548D+00
 Gap=     0.245 Goal=   None    Shift=    0.000
 Gap=     0.245 Goal=   None    Shift=    0.000
 RMSDP=7.35D-06 MaxDP=2.49D-04 DE=-3.11D-05 OVMax= 8.78D-04

 Initial convergence to 1.0D-05 achieved.  Increase integral accuracy.
 Cycle   7  Pass 1  IDiag  1:
 E= -157.170604876759     Delta-E=       -0.000000862011 Rises=F Damp=F
 DIIS: error= 4.31D-05 at cycle   1 NSaved=   1.
 NSaved= 1 IEnMin= 1 EnMin= -157.170604876759     IErMin= 1 ErrMin= 4.31D-05
 ErrMax= 4.31D-05  0.00D+00 EMaxC= 1.00D-01 BMatC= 1.29D-06 BMatP= 1.29D-06
 IDIUse=1 WtCom= 1.00D+00 WtEn= 0.00D+00
 Coeff-Com:  0.100D+01
 Coeff:      0.100D+01
 Gap=     0.245 Goal=   None    Shift=    0.000
 Gap=     0.245 Goal=   None    Shift=    0.000
 RMSDP=7.35D-06 MaxDP=2.49D-04 DE=-8.62D-07 OVMax= 8.27D-04

 Cycle   8  Pass 1  IDiag  1:
 E= -157.170604088219     Delta-E=        0.000000788540 Rises=F Damp=F
 DIIS: error= 6.92D-05 at cycle   2 NSaved=   2.
 NSaved= 2 IEnMin= 1 EnMin= -157.170604876759     IErMin= 1 ErrMin= 4.31D-05
 ErrMax= 6.92D-05  0.00D+00 EMaxC= 1.00D-01 BMatC= 4.33D-06 BMatP= 1.29D-06
 IDIUse=1 WtCom= 1.00D+00 WtEn= 0.00D+00
 Coeff-Com:  0.648D+00 0.352D+00
 Coeff:      0.648D+00 0.352D+00
 Gap=     0.245 Goal=   None    Shift=    0.000
 Gap=     0.245 Goal=   None    Shift=    0.000
 RMSDP=4.06D-06 MaxDP=1.38D-04 DE= 7.89D-07 OVMax= 5.51D-04

 Cycle   9  Pass 1  IDiag  1:
 E= -157.170605220587     Delta-E=       -0.000001132368 Rises=F Damp=F
 DIIS: error= 4.21D-06 at cycle   3 NSaved=   3.
 NSaved= 3 IEnMin= 3 EnMin= -157.170605220587     IErMin= 3 ErrMin= 4.21D-06
 ErrMax= 4.21D-06  0.00D+00 EMaxC= 1.00D-01 BMatC= 2.24D-08 BMatP= 1.29D-06
 IDIUse=1 WtCom= 1.00D+00 WtEn= 0.00D+00
 Coeff-Com:  0.328D+00 0.181D+00 0.491D+00
 Coeff:      0.328D+00 0.181D+00 0.491D+00
 Gap=     0.245 Goal=   None    Shift=    0.000
 Gap=     0.245 Goal=   None    Shift=    0.000
 RMSDP=3.51D-07 MaxDP=1.02D-05 DE=-1.13D-06 OVMax= 2.65D-05

 Cycle  10  Pass 1  IDiag  1:
 E= -157.170605225767     Delta-E=       -0.000000005180 Rises=F Damp=F
 DIIS: error= 9.49D-07 at cycle   4 NSaved=   4.
 NSaved= 4 IEnMin= 4 EnMin= -157.170605225767     IErMin= 4 ErrMin= 9.49D-07
 ErrMax= 9.49D-07  0.00D+00 EMaxC= 1.00D-01 BMatC= 8.07D-10 BMatP= 2.24D-08
 IDIUse=1 WtCom= 1.00D+00 WtEn= 0.00D+00
 Coeff-Com:  0.943D-01 0.509D-01 0.211D+00 0.643D+00
 Coeff:      0.943D-01 0.509D-01 0.211D+00 0.643D+00
 Gap=     0.245 Goal=   None    Shift=    0.000
 Gap=     0.245 Goal=   None    Shift=    0.000
 RMSDP=8.16D-08 MaxDP=1.51D-06 DE=-5.18D-09 OVMax= 5.12D-06

 Cycle  11  Pass 1  IDiag  1:
 E= -157.170605225957     Delta-E=       -0.000000000191 Rises=F Damp=F
 DIIS: error= 2.64D-07 at cycle   5 NSaved=   5.
 NSaved= 5 IEnMin= 5 EnMin= -157.170605225957     IErMin= 5 ErrMin= 2.64D-07
 ErrMax= 2.64D-07  0.00D+00 EMaxC= 1.00D-01 BMatC= 2.26D-11 BMatP= 8.07D-10
 IDIUse=1 WtCom= 1.00D+00 WtEn= 0.00D+00
 Coeff-Com: -0.281D-02-0.220D-02 0.165D-01 0.169D+00 0.820D+00
 Coeff:     -0.281D-02-0.220D-02 0.165D-01 0.169D+00 0.820D+00
 Gap=     0.245 Goal=   None    Shift=    0.000
 Gap=     0.245 Goal=   None    Shift=    0.000
 RMSDP=1.82D-08 MaxDP=3.11D-07 DE=-1.91D-10 OVMax= 7.53D-07

 Cycle  12  Pass 1  IDiag  1:
 E= -157.170605225963     Delta-E=       -0.000000000005 Rises=F Damp=F
 DIIS: error= 4.38D-08 at cycle   6 NSaved=   6.
 NSaved= 6 IEnMin= 6 EnMin= -157.170605225963     IErMin= 6 ErrMin= 4.38D-08
 ErrMax= 4.38D-08  0.00D+00 EMaxC= 1.00D-01 BMatC= 1.35D-12 BMatP= 2.26D-11
 IDIUse=1 WtCom= 1.00D+00 WtEn= 0.00D+00
 Coeff-Com: -0.359D-02-0.220D-02 0.667D-03 0.388D-01 0.297D+00 0.669D+00
 Coeff:     -0.359D-02-0.220D-02 0.667D-03 0.388D-01 0.297D+00 0.669D+00
 Gap=     0.245 Goal=   None    Shift=    0.000
 Gap=     0.245 Goal=   None    Shift=    0.000
 RMSDP=3.98D-09 MaxDP=7.46D-08 DE=-5.29D-12 OVMax= 1.66D-07

 SCF Done:  E(UB3LYP) =  -157.170605226     A.U. after   12 cycles
            NFock= 12  Conv=0.40D-08     -V/T= 2.0010
 <Sx>= 0.0000 <Sy>= 0.0000 <Sz>= 0.0000 <S**2>=-0.0000 S=-0.0000
 <L.S>= 0.000000000000E+00
 KE= 1.570111767809D+02 PE=-6.067995985445D+02 EE= 1.711570272560D+02
 Annihilation of the first spin contaminant:
 S**2 before annihilation    -0.0000,   after     0.0000
 Leave Link  502 at Mon May  4 16:55:16 2020, MaxMem=  4294967296 cpu:             322.5 elap:              29.5
 (Enter /opt/gaussian/gdv-20191001-j04+/gdv/l601.exe)
 Copying SCF densities to generalized density rwf, IOpCl= 1 IROHF=0.

 **********************************************************************

            Population analysis using the SCF Density.

 **********************************************************************

 Orbital symmetries:
 Alpha Orbitals:
       Occupied  (A) (A) (A) (A) (A) (A) (A) (A) (A) (A) (A) (A)
                 (A) (A) (A) (A)
       Virtual   (A) (A) (A) (A) (A) (A) (A) (A) (A) (A) (A) (A)
                 (A) (A) (A) (A) (A) (A) (A) (A) (A) (A) (A) (A)
                 (A) (A) (A) (A) (A) (A) (A) (A) (A) (A) (A) (A)
                 (A) (A) (A) (A) (A) (A) (A) (A) (A) (A) (A) (A)
                 (A) (A) (A) (A) (A) (A) (A) (A) (A) (A) (A) (A)
                 (A) (A) (A) (A) (A) (A) (A) (A) (A) (A) (A) (A)
                 (A) (A) (A) (A) (A) (A) (A) (A) (A) (A) (A) (A)
                 (A) (A) (A) (A) (A) (A) (A) (A) (A) (A) (A) (A)
                 (A) (A) (A) (A) (A) (A) (A) (A) (A) (A) (A) (A)
                 (A) (A) (A) (A) (A) (A) (A) (A) (A) (A) (A) (A)
                 (A) (A) (A) (A) (A) (A) (A) (A) (A) (A) (A) (A)
                 (A) (A) (A) (A) (A) (A) (A) (A) (A) (A) (A) (A)
                 (A) (A) (A) (A) (A) (A) (A) (A) (A) (A) (A) (A)
 Beta  Orbitals:
       Occupied  (A) (A) (A) (A) (A) (A) (A) (A) (A) (A) (A) (A)
                 (A) (A) (A) (A)
       Virtual   (A) (A) (A) (A) (A) (A) (A) (A) (A) (A) (A) (A)
                 (A) (A) (A) (A) (A) (A) (A) (A) (A) (A) (A) (A)
                 (A) (A) (A) (A) (A) (A) (A) (A) (A) (A) (A) (A)
                 (A) (A) (A) (A) (A) (A) (A) (A) (A) (A) (A) (A)
                 (A) (A) (A) (A) (A) (A) (A) (A) (A) (A) (A) (A)
                 (A) (A) (A) (A) (A) (A) (A) (A) (A) (A) (A) (A)
                 (A) (A) (A) (A) (A) (A) (A) (A) (A) (A) (A) (A)
                 (A) (A) (A) (A) (A) (A) (A) (A) (A) (A) (A) (A)
                 (A) (A) (A) (A) (A) (A) (A) (A) (A) (A) (A) (A)
                 (A) (A) (A) (A) (A) (A) (A) (A) (A) (A) (A) (A)
                 (A) (A) (A) (A) (A) (A) (A) (A) (A) (A) (A) (A)
                 (A) (A) (A) (A) (A) (A) (A) (A) (A) (A) (A) (A)
                 (A) (A) (A) (A) (A) (A) (A) (A) (A) (A) (A) (A)
 The electronic state is 1-A.
 Alpha  occ. eigenvalues --  -10.17223 -10.16455 -10.15844 -10.14532  -0.81643
 Alpha  occ. eigenvalues --   -0.73287  -0.66850  -0.57108  -0.50241  -0.43955
 Alpha  occ. eigenvalues --   -0.42781  -0.40463  -0.38115  -0.34767  -0.32870
 Alpha  occ. eigenvalues --   -0.24438
 Alpha virt. eigenvalues --    0.00028   0.03967   0.06381   0.08458   0.09997
 Alpha virt. eigenvalues --    0.11318   0.12265   0.13307   0.15929   0.17413
 Alpha virt. eigenvalues --    0.20162   0.20763   0.21341   0.22718   0.23172
 Alpha virt. eigenvalues --    0.24247   0.27831   0.32473   0.33141   0.35206
 Alpha virt. eigenvalues --    0.37775   0.38543   0.40652   0.42321   0.42888
 Alpha virt. eigenvalues --    0.44360   0.45117   0.47725   0.48022   0.50396
 Alpha virt. eigenvalues --    0.53394   0.56208   0.57164   0.61286   0.64065
 Alpha virt. eigenvalues --    0.65982   0.68152   0.72042   0.76030   0.77886
 Alpha virt. eigenvalues --    0.81784   0.86905   0.91284   0.93483   0.96012
 Alpha virt. eigenvalues --    1.00078   1.02928   1.06240   1.08130   1.11998
 Alpha virt. eigenvalues --    1.13156   1.14947   1.20555   1.23874   1.27659
 Alpha virt. eigenvalues --    1.35577   1.42302   1.45855   1.48442   1.49177
 Alpha virt. eigenvalues --    1.50556   1.52941   1.56819   1.59782   1.60417
 Alpha virt. eigenvalues --    1.62516   1.65129   1.70840   1.73488   1.76525
 Alpha virt. eigenvalues --    1.78142   1.81310   1.85123   1.87130   1.93171
 Alpha virt. eigenvalues --    1.95019   1.99812   2.02829   2.10727   2.11703
 Alpha virt. eigenvalues --    2.13142   2.25225   2.27309   2.30983   2.32419
 Alpha virt. eigenvalues --    2.39018   2.40356   2.42920   2.46036   2.48579
 Alpha virt. eigenvalues --    2.49949   2.54456   2.54960   2.57612   2.63735
 Alpha virt. eigenvalues --    2.66780   2.67585   2.70048   2.75258   2.77821
 Alpha virt. eigenvalues --    2.82121   2.82564   2.85997   2.87505   2.93366
 Alpha virt. eigenvalues --    2.97054   3.02178   3.02453   3.06348   3.10141
 Alpha virt. eigenvalues --    3.11576   3.11908   3.14296   3.16225   3.20902
 Alpha virt. eigenvalues --    3.22863   3.24825   3.27041   3.28742   3.35560
 Alpha virt. eigenvalues --    3.36561   3.41126   3.45712   3.46743   3.50448
 Alpha virt. eigenvalues --    3.51514   3.54319   3.55369   3.62583   3.67688
 Alpha virt. eigenvalues --    3.73646   3.80566   3.89231   3.90883   3.99448
 Alpha virt. eigenvalues --    4.04873   4.06389   4.11716   4.17282   4.26228
 Alpha virt. eigenvalues --    4.30838   4.38629   4.39536   4.47484   4.54041
 Alpha virt. eigenvalues --    4.62090   4.68688   4.79766   4.90923   4.94200
 Alpha virt. eigenvalues --    5.14358   5.33376  22.18428  22.39092  22.63541
 Alpha virt. eigenvalues --   22.82964
  Beta  occ. eigenvalues --  -10.17223 -10.16455 -10.15844 -10.14532  -0.81643
  Beta  occ. eigenvalues --   -0.73287  -0.66850  -0.57108  -0.50241  -0.43955
  Beta  occ. eigenvalues --   -0.42781  -0.40463  -0.38115  -0.34767  -0.32870
  Beta  occ. eigenvalues --   -0.24438
  Beta virt. eigenvalues --    0.00028   0.03967   0.06381   0.08458   0.09997
  Beta virt. eigenvalues --    0.11318   0.12265   0.13307   0.15929   0.17413
  Beta virt. eigenvalues --    0.20162   0.20763   0.21341   0.22718   0.23172
  Beta virt. eigenvalues --    0.24247   0.27831   0.32473   0.33141   0.35206
  Beta virt. eigenvalues --    0.37775   0.38543   0.40652   0.42321   0.42888
  Beta virt. eigenvalues --    0.44360   0.45117   0.47725   0.48022   0.50396
  Beta virt. eigenvalues --    0.53394   0.56208   0.57164   0.61286   0.64065
  Beta virt. eigenvalues --    0.65982   0.68152   0.72042   0.76030   0.77886
  Beta virt. eigenvalues --    0.81784   0.86905   0.91284   0.93483   0.96012
  Beta virt. eigenvalues --    1.00078   1.02928   1.06240   1.08130   1.11998
  Beta virt. eigenvalues --    1.13156   1.14947   1.20555   1.23874   1.27659
  Beta virt. eigenvalues --    1.35577   1.42302   1.45855   1.48442   1.49177
  Beta virt. eigenvalues --    1.50556   1.52941   1.56819   1.59782   1.60417
  Beta virt. eigenvalues --    1.62516   1.65129   1.70840   1.73488   1.76525
  Beta virt. eigenvalues --    1.78142   1.81310   1.85123   1.87130   1.93171
  Beta virt. eigenvalues --    1.95019   1.99812   2.02829   2.10727   2.11703
  Beta virt. eigenvalues --    2.13142   2.25225   2.27309   2.30983   2.32419
  Beta virt. eigenvalues --    2.39018   2.40356   2.42920   2.46036   2.48579
  Beta virt. eigenvalues --    2.49949   2.54456   2.54960   2.57612   2.63735
  Beta virt. eigenvalues --    2.66780   2.67585   2.70048   2.75258   2.77821
  Beta virt. eigenvalues --    2.82121   2.82564   2.85997   2.87505   2.93366
  Beta virt. eigenvalues --    2.97054   3.02178   3.02453   3.06348   3.10141
  Beta virt. eigenvalues --    3.11576   3.11908   3.14296   3.16225   3.20902
  Beta virt. eigenvalues --    3.22863   3.24825   3.27041   3.28742   3.35560
  Beta virt. eigenvalues --    3.36561   3.41126   3.45712   3.46743   3.50448
  Beta virt. eigenvalues --    3.51514   3.54319   3.55369   3.62583   3.67688
  Beta virt. eigenvalues --    3.73646   3.80566   3.89231   3.90883   3.99448
  Beta virt. eigenvalues --    4.04873   4.06389   4.11716   4.17282   4.26228
  Beta virt. eigenvalues --    4.30838   4.38629   4.39536   4.47484   4.54041
  Beta virt. eigenvalues --    4.62090   4.68688   4.79766   4.90923   4.94200
  Beta virt. eigenvalues --    5.14358   5.33376  22.18428  22.39092  22.63541
  Beta virt. eigenvalues --   22.82964
          Condensed to atoms (all electrons):
               1          2          3          4          5          6
     1  C    4.945078   0.423451   0.438132   0.585461  -0.034237  -0.036353
     2  H    0.423451   0.537011  -0.029020  -0.040798  -0.007588   0.007760
     3  H    0.438132  -0.029020   0.552088  -0.057538   0.006400  -0.008702
     4  C    0.585461  -0.040798  -0.057538   4.985654   0.420204   0.290381
     5  H   -0.034237  -0.007588   0.006400   0.420204   0.551197  -0.051687
     6  C   -0.036353   0.007760  -0.008702   0.290381  -0.051687   5.077319
     7  H    0.002480   0.000073  -0.000471  -0.038392  -0.001152   0.494829
     8  H   -0.020609  -0.000512   0.000810  -0.016405   0.003528   0.259026
     9  C   -0.013470  -0.000263  -0.001252  -0.049900   0.005342   0.280387
    10  H    0.000199  -0.000018   0.000656   0.009842  -0.000172  -0.043386
    11  H   -0.003711   0.000637  -0.003990  -0.003286  -0.000195  -0.024608
    12  H   -0.000886  -0.000156  -0.001082   0.006105   0.000104  -0.082158
               7          8          9         10         11         12
     1  C    0.002480  -0.020609  -0.013470   0.000199  -0.003711  -0.000886
     2  H    0.000073  -0.000512  -0.000263  -0.000018   0.000637  -0.000156
     3  H   -0.000471   0.000810  -0.001252   0.000656  -0.003990  -0.001082
     4  C   -0.038392  -0.016405  -0.049900   0.009842  -0.003286   0.006105
     5  H   -0.001152   0.003528   0.005342  -0.000172  -0.000195   0.000104
     6  C    0.494829   0.259026   0.280387  -0.043386  -0.024608  -0.082158
     7  H    0.498888  -0.080698  -0.015635  -0.005971   0.005983  -0.007508
     8  H   -0.080698   0.824368  -0.021522  -0.000629  -0.023439   0.015791
     9  C   -0.015635  -0.021522   4.879252   0.409056   0.424662   0.430964
    10  H   -0.005971  -0.000629   0.409056   0.569726  -0.027343  -0.019704
    11  H    0.005983  -0.023439   0.424662  -0.027343   0.580330  -0.041131
    12  H   -0.007508   0.015791   0.430964  -0.019704  -0.041131   0.585718
          Atomic-Atomic Spin Densities.
               1          2          3          4          5          6
     1  C    0.000000  -0.000000   0.000000  -0.000000   0.000000  -0.000000
     2  H   -0.000000   0.000000  -0.000000   0.000000  -0.000000   0.000000
     3  H    0.000000  -0.000000   0.000000  -0.000000  -0.000000   0.000000
     4  C   -0.000000   0.000000  -0.000000   0.000000  -0.000000   0.000000
     5  H    0.000000  -0.000000  -0.000000  -0.000000   0.000000   0.000000
     6  C   -0.000000   0.000000   0.000000   0.000000   0.000000  -0.000000
     7  H   -0.000000  -0.000000   0.000000   0.000000   0.000000  -0.000000
     8  H   -0.000000   0.000000   0.000000   0.000000   0.000000   0.000000
     9  C   -0.000000  -0.000000   0.000000   0.000000  -0.000000  -0.000000
    10  H   -0.000000  -0.000000   0.000000   0.000000   0.000000  -0.000000
    11  H   -0.000000  -0.000000   0.000000   0.000000   0.000000  -0.000000
    12  H    0.000000  -0.000000   0.000000   0.000000   0.000000  -0.000000
               7          8          9         10         11         12
     1  C   -0.000000  -0.000000  -0.000000  -0.000000  -0.000000   0.000000
     2  H   -0.000000   0.000000  -0.000000  -0.000000  -0.000000  -0.000000
     3  H    0.000000   0.000000   0.000000   0.000000   0.000000   0.000000
     4  C    0.000000   0.000000   0.000000   0.000000   0.000000   0.000000
     5  H    0.000000   0.000000  -0.000000   0.000000   0.000000   0.000000
     6  C   -0.000000   0.000000  -0.000000  -0.000000  -0.000000  -0.000000
     7  H    0.000000  -0.000000   0.000000   0.000000   0.000000  -0.000000
     8  H   -0.000000  -0.000000   0.000000   0.000000   0.000000   0.000000
     9  C    0.000000   0.000000   0.000000   0.000000   0.000000  -0.000000
    10  H    0.000000   0.000000   0.000000  -0.000000  -0.000000  -0.000000
    11  H    0.000000   0.000000   0.000000  -0.000000  -0.000000  -0.000000
    12  H   -0.000000   0.000000  -0.000000  -0.000000  -0.000000   0.000000
 Mulliken charges and spin densities:
               1          2
     1  C   -0.285535  -0.000000
     2  H    0.109423   0.000000
     3  H    0.103969   0.000000
     4  C   -0.091328   0.000000
     5  H    0.108256   0.000000
     6  C   -0.162806  -0.000000
     7  H    0.147574   0.000000
     8  H    0.060291   0.000000
     9  C   -0.327621   0.000000
    10  H    0.107744  -0.000000
    11  H    0.116091  -0.000000
    12  H    0.113942  -0.000000
 Sum of Mulliken charges =  -0.00000  -0.00000
 Mulliken charges and spin densities with hydrogens summed into heavy atoms:
               1          2
     1  C   -0.072144   0.000000
     4  C    0.016928   0.000000
     6  C    0.045059  -0.000000
     9  C    0.010156   0.000000
 Electronic spatial extent (au):  <R**2>=            322.2763
 Charge=             -0.0000 electrons
 Dipole moment (field-independent basis, Debye):
    X=              0.5657    Y=              0.4647    Z=              0.2349  Tot=              0.7688
 Quadrupole moment (field-independent basis, Debye-Ang):
   XX=            -26.1439   YY=            -25.3222   ZZ=            -29.0071
   XY=              0.3558   XZ=              0.3107   YZ=             -0.1367
 Traceless Quadrupole moment (field-independent basis, Debye-Ang):
   XX=              0.6805   YY=              1.5022   ZZ=             -2.1827
   XY=              0.3558   XZ=              0.3107   YZ=             -0.1367
 Octapole moment (field-independent basis, Debye-Ang**2):
  XXX=             -0.9550  YYY=              2.8589  ZZZ=             -0.5790  XYY=             -0.1746
  XXY=              1.6456  XXZ=              0.3788  XZZ=              2.4991  YZZ=             -0.2742
  YYZ=              0.8659  XYZ=              0.5870
 Hexadecapole moment (field-independent basis, Debye-Ang**3):
 XXXX=           -263.0373 YYYY=           -124.4024 ZZZZ=            -48.5051 XXXY=              3.6876
 XXXZ=              1.6001 YYYX=              1.4755 YYYZ=             -1.6080 ZZZX=             -0.7873
 ZZZY=             -0.5268 XXYY=            -66.5474 XXZZ=            -59.2884 YYZZ=            -30.2024
 XXYZ=             -0.7501 YYXZ=              0.8292 ZZXY=             -0.8645
 N-N= 1.214607892816D+02 E-N=-6.067996056352D+02  KE= 1.570111767809D+02

 Atomic contributions to Alpha molecular orbitals:
 Alpha occ 1 OE=-10.172 is C4-s=1.0049
 Alpha occ 2 OE=-10.165 is C6-s=1.0049
 Alpha occ 3 OE=-10.158 is C9-s=1.0047
 Alpha occ 4 OE=-10.145 is C1-s=1.0074
 Alpha occ 5 OE=-0.816 is C6-s=0.3067 C4-s=0.2219 C9-s=0.1427 C1-s=0.1000
 Alpha occ 6 OE=-0.733 is C1-s=0.2957 C4-s=0.1684 C9-s=0.1487
 Alpha occ 7 OE=-0.668 is C9-s=0.3107 C6-s=0.1076 C6-p=0.1057 H7-s=0.1028
 Alpha occ 8 OE=-0.571 is C4-s=0.1886 C1-s=0.1661 H5-s=0.1125
 Alpha occ 9 OE=-0.502 is C4-p=0.2244 C1-p=0.1624 C6-p=0.1624 C9-p=0.1122
 Alpha occ 10 OE=-0.440 is C9-p=0.3862 H11-s=0.1732 C6-p=0.1611 H12-s=0.1067
 Alpha occ 11 OE=-0.428 is C4-p=0.2371 C1-p=0.2158 C9-p=0.1671 C6-p=0.1127
 Alpha occ 12 OE=-0.405 is C1-p=0.2637 C6-p=0.1771 H2-s=0.1763 C9-p=0.1467
 Alpha occ 13 OE=-0.381 is C9-p=0.3342 H10-s=0.1746 C1-p=0.1118
 Alpha occ 14 OE=-0.348 is C6-p=0.2398 C9-p=0.1871 C4-p=0.1858 H5-s=0.1136
 Alpha occ 15 OE=-0.329 is C6-p=0.2380 C4-p=0.1818 H8-s=0.1680 C9-p=0.1210
 Alpha occ 16 OE=-0.244 is C1-p=0.4508 C4-p=0.2659 H8-s=0.1201
 Alpha vir 17 OE=0.000 is H8-s=0.3688 C1-p=0.3487 C4-p=0.2827 C6-s=-0.2372 H7-s=0.1139 C9-s=-0.1105
 Alpha vir 18 OE=0.040 is C6-s=-1.0521 H7-s=0.6871 H8-s=0.6777 C9-s=-0.4081 C4-p=0.2651 H10-s=0.2172 H11-s=0.1641 H12-s=0.1562 C6-p=-0.1313 C1-p=0.1007
 Alpha vir 19 OE=0.064 is C9-s=-1.3714 H12-s=0.5940 H11-s=0.5389 C6-s=-0.3292 C6-p=0.2829 H7-s=0.2691 C9-p=0.2690 H10-s=0.2233 H3-s=0.2226 H8-s=0.2097 H5-s=0.1989
 Alpha vir 20 OE=0.085 is H5-s=0.8402 H2-s=0.7601 C1-s=-0.3570 C4-p=-0.2490 C4-s=-0.1398 C1-p=-0.1242
 Alpha vir 21 OE=0.100 is H10-s=0.8551 H7-s=0.4217 C1-s=-0.3716 C9-p=-0.3192 H2-s=0.2323 C9-s=-0.2228 C6-p=-0.1715 H5-s=0.1361 C4-s=0.1221 H3-s=0.1119
 Alpha vir 22 OE=0.113 is H12-s=0.7937 H5-s=0.3355 C9-p=-0.3121 C4-s=-0.2500 H2-s=0.1282 C6-s=0.1059
 Alpha vir 23 OE=0.123 is H5-s=0.5406 H2-s=0.5024 C4-p=-0.3025 H7-s=0.2051 C6-s=-0.1840 H11-s=0.1466 H12-s=0.1146 C1-s=-0.1100
 Alpha vir 24 OE=0.133 is H7-s=0.9341 C1-p=-0.3756 C6-s=-0.3516 H3-s=0.3413 C6-p=-0.2720 H10-s=0.2121 H2-s=0.2029 H11-s=0.1496 C4-p=0.1122
 Alpha vir 25 OE=0.159 is H3-s=0.8574 H11-s=0.3488 C1-s=-0.3042 C9-p=0.1827 C9-s=-0.1805 C1-p=-0.1577
 Alpha vir 26 OE=0.174 is C9-p=0.9542 C6-p=-0.3146 H7-s=0.2019
 Alpha vir 27 OE=0.202 is C1-p=0.6563 C4-s=-0.2586 H7-s=0.2557 C6-s=0.2540 H5-s=0.1547 C4-p=-0.1204 C9-p=0.1173
 Alpha vir 28 OE=0.208 is C6-p=0.6966 C1-p=0.3015 C4-p=-0.1315 H3-s=-0.1293 C9-p=0.1041
 Alpha vir 29 OE=0.213 is C4-s=0.4576 C9-p=0.4520 C6-s=0.2511 C1-s=-0.1667 H8-s=0.1194 H11-s=-0.1021
 Alpha vir 30 OE=0.227 is C1-s=0.6874 C9-p=0.4144 C4-s=-0.1982 C1-p=0.1491 C6-p=0.1310 H5-s=-0.1220 H7-s=0.1148
 Alpha vir 31 OE=0.232 is C1-s=1.0428 C4-p=-0.3100 C1-p=0.2553 C9-p=0.1324
 Alpha vir 32 OE=0.242 is C4-p=0.6904 C6-p=-0.4128 C9-p=0.3399 C1-p=0.2708 C4-s=0.2028 H7-s=-0.1043
 Alpha vir 33 OE=0.278 is C4-p=0.4417 C9-p=0.2773 C6-p=0.2239 C1-p=0.2117 C6-s=-0.1829 H11-s=-0.1652 C4-s=0.1374 C9-s=0.1009
 Alpha vir 34 OE=0.325 is C1-p=0.4102 C6-p=0.3521 H3-s=-0.1659
 Alpha vir 35 OE=0.331 is C1-p=0.5119 C4-p=0.2182 C6-p=0.1546
 Alpha vir 36 OE=0.352 is C1-s=0.7129 C6-p=0.4587 C4-s=0.4107 C1-p=-0.3863 C4-p=-0.2118 C4-d=0.1119

 Atomic contributions to Beta  molecular orbitals:
 Beta  occ 1 OE=-10.172 is C4-s=1.0049
 Beta  occ 2 OE=-10.165 is C6-s=1.0049
 Beta  occ 3 OE=-10.158 is C9-s=1.0047
 Beta  occ 4 OE=-10.145 is C1-s=1.0074
 Beta  occ 5 OE=-0.816 is C6-s=0.3067 C4-s=0.2219 C9-s=0.1427 C1-s=0.1000
 Beta  occ 6 OE=-0.733 is C1-s=0.2957 C4-s=0.1684 C9-s=0.1487
 Beta  occ 7 OE=-0.668 is C9-s=0.3107 C6-s=0.1076 C6-p=0.1057 H7-s=0.1028
 Beta  occ 8 OE=-0.571 is C4-s=0.1886 C1-s=0.1661 H5-s=0.1125
 Beta  occ 9 OE=-0.502 is C4-p=0.2244 C1-p=0.1624 C6-p=0.1624 C9-p=0.1122
 Beta  occ 10 OE=-0.440 is C9-p=0.3862 H11-s=0.1732 C6-p=0.1611 H12-s=0.1067
 Beta  occ 11 OE=-0.428 is C4-p=0.2371 C1-p=0.2158 C9-p=0.1671 C6-p=0.1127
 Beta  occ 12 OE=-0.405 is C1-p=0.2637 C6-p=0.1771 H2-s=0.1763 C9-p=0.1467
 Beta  occ 13 OE=-0.381 is C9-p=0.3342 H10-s=0.1746 C1-p=0.1118
 Beta  occ 14 OE=-0.348 is C6-p=0.2398 C9-p=0.1871 C4-p=0.1858 H5-s=0.1136
 Beta  occ 15 OE=-0.329 is C6-p=0.2380 C4-p=0.1818 H8-s=0.1680 C9-p=0.1210
 Beta  occ 16 OE=-0.244 is C1-p=0.4508 C4-p=0.2659 H8-s=0.1201
 Beta  vir 17 OE=0.000 is H8-s=0.3688 C1-p=0.3487 C4-p=0.2827 C6-s=-0.2372 H7-s=0.1139 C9-s=-0.1105
 Beta  vir 18 OE=0.040 is C6-s=-1.0521 H7-s=0.6871 H8-s=0.6777 C9-s=-0.4081 C4-p=0.2651 H10-s=0.2172 H11-s=0.1641 H12-s=0.1562 C6-p=-0.1313 C1-p=0.1007
 Beta  vir 19 OE=0.064 is C9-s=-1.3714 H12-s=0.5940 H11-s=0.5389 C6-s=-0.3292 C6-p=0.2829 H7-s=0.2691 C9-p=0.2690 H10-s=0.2233 H3-s=0.2226 H8-s=0.2097 H5-s=0.1989
 Beta  vir 20 OE=0.085 is H5-s=0.8402 H2-s=0.7601 C1-s=-0.3570 C4-p=-0.2490 C4-s=-0.1398 C1-p=-0.1242
 Beta  vir 21 OE=0.100 is H10-s=0.8551 H7-s=0.4217 C1-s=-0.3716 C9-p=-0.3192 H2-s=0.2323 C9-s=-0.2228 C6-p=-0.1715 H5-s=0.1361 C4-s=0.1221 H3-s=0.1119
 Beta  vir 22 OE=0.113 is H12-s=0.7937 H5-s=0.3355 C9-p=-0.3121 C4-s=-0.2500 H2-s=0.1282 C6-s=0.1059
 Beta  vir 23 OE=0.123 is H5-s=0.5406 H2-s=0.5024 C4-p=-0.3025 H7-s=0.2051 C6-s=-0.1840 H11-s=0.1466 H12-s=0.1146 C1-s=-0.1100
 Beta  vir 24 OE=0.133 is H7-s=0.9341 C1-p=-0.3756 C6-s=-0.3516 H3-s=0.3413 C6-p=-0.2720 H10-s=0.2121 H2-s=0.2029 H11-s=0.1496 C4-p=0.1122
 Beta  vir 25 OE=0.159 is H3-s=0.8574 H11-s=0.3488 C1-s=-0.3042 C9-p=0.1827 C9-s=-0.1805 C1-p=-0.1577
 Beta  vir 26 OE=0.174 is C9-p=0.9542 C6-p=-0.3146 H7-s=0.2019
 Beta  vir 27 OE=0.202 is C1-p=0.6563 C4-s=-0.2586 H7-s=0.2557 C6-s=0.2540 H5-s=0.1547 C4-p=-0.1204 C9-p=0.1173
 Beta  vir 28 OE=0.208 is C6-p=0.6966 C1-p=0.3015 C4-p=-0.1315 H3-s=-0.1293 C9-p=0.1041
 Beta  vir 29 OE=0.213 is C4-s=0.4576 C9-p=0.4520 C6-s=0.2511 C1-s=-0.1667 H8-s=0.1194 H11-s=-0.1021
 Beta  vir 30 OE=0.227 is C1-s=0.6874 C9-p=0.4144 C4-s=-0.1982 C1-p=0.1491 C6-p=0.1310 H5-s=-0.1220 H7-s=0.1148
 Beta  vir 31 OE=0.232 is C1-s=1.0428 C4-p=-0.3100 C1-p=0.2553 C9-p=0.1324
 Beta  vir 32 OE=0.242 is C4-p=0.6904 C6-p=-0.4128 C9-p=0.3399 C1-p=0.2708 C4-s=0.2028 H7-s=-0.1043
 Beta  vir 33 OE=0.278 is C4-p=0.4417 C9-p=0.2773 C6-p=0.2239 C1-p=0.2117 C6-s=-0.1829 H11-s=-0.1652 C4-s=0.1374 C9-s=0.1009
 Beta  vir 34 OE=0.325 is C1-p=0.4102 C6-p=0.3521 H3-s=-0.1659
 Beta  vir 35 OE=0.331 is C1-p=0.5119 C4-p=0.2182 C6-p=0.1546
 Beta  vir 36 OE=0.352 is C1-s=0.7129 C6-p=0.4587 C4-s=0.4107 C1-p=-0.3863 C4-p=-0.2118 C4-d=0.1119
 
                          Isotropic Fermi Contact Couplings
        Atom                 a.u.       MegaHertz       Gauss      10(-4) cm-1
     1  C(13)              0.00000       0.00000       0.00000       0.00000
     2  H(1)              -0.00000      -0.00000      -0.00000      -0.00000
     3  H(1)              -0.00000      -0.00000      -0.00000      -0.00000
     4  C(13)             -0.00000      -0.00000      -0.00000      -0.00000
     5  H(1)               0.00000       0.00000       0.00000       0.00000
     6  C(13)             -0.00000      -0.00000      -0.00000      -0.00000
     7  H(1)               0.00000       0.00000       0.00000       0.00000
     8  H(1)               0.00000       0.00000       0.00000       0.00000
     9  C(13)             -0.00000      -0.00000      -0.00000      -0.00000
    10  H(1)              -0.00000      -0.00000      -0.00000      -0.00000
    11  H(1)              -0.00000      -0.00000      -0.00000      -0.00000
    12  H(1)               0.00000       0.00000       0.00000       0.00000
 --------------------------------------------------------
       Center         ----  Spin Dipole Couplings  ----
                      3XX-RR        3YY-RR        3ZZ-RR
 --------------------------------------------------------
     1   Atom        0.000000      0.000000      0.000000
     2   Atom        0.000000      0.000000      0.000000
     3   Atom        0.000000      0.000000      0.000000
     4   Atom        0.000000      0.000000      0.000000
     5   Atom        0.000000      0.000000      0.000000
     6   Atom        0.000000      0.000000      0.000000
     7   Atom        0.000000      0.000000      0.000000
     8   Atom        0.000000      0.000000      0.000000
     9   Atom        0.000000      0.000000      0.000000
    10   Atom        0.000000      0.000000      0.000000
    11   Atom        0.000000      0.000000      0.000000
    12   Atom        0.000000      0.000000      0.000000
 --------------------------------------------------------
                        XY            XZ            YZ
 --------------------------------------------------------
     1   Atom        0.000000      0.000000      0.000000
     2   Atom        0.000000      0.000000      0.000000
     3   Atom        0.000000      0.000000      0.000000
     4   Atom        0.000000      0.000000      0.000000
     5   Atom        0.000000      0.000000      0.000000
     6   Atom        0.000000      0.000000      0.000000
     7   Atom        0.000000      0.000000      0.000000
     8   Atom        0.000000      0.000000      0.000000
     9   Atom        0.000000      0.000000      0.000000
    10   Atom        0.000000      0.000000      0.000000
    11   Atom        0.000000      0.000000      0.000000
    12   Atom        0.000000      0.000000      0.000000
 --------------------------------------------------------


 ---------------------------------------------------------------------------------
              Anisotropic Spin Dipole Couplings in Principal Axis System
 ---------------------------------------------------------------------------------

       Atom             a.u.   MegaHertz   Gauss  10(-4) cm-1        Axes

              Baa     0.0000     0.000     0.000     0.000  1.0000  0.0000  0.0000
     1 C(13)  Bbb     0.0000     0.000     0.000     0.000 -0.0000  1.0000  0.0000
              Bcc     0.0000     0.000     0.000     0.000  0.0000  0.0000  1.0000
 
              Baa     0.0000     0.000     0.000     0.000  1.0000  0.0000  0.0000
     2 H(1)   Bbb     0.0000     0.000     0.000     0.000 -0.0000  1.0000  0.0000
              Bcc     0.0000     0.000     0.000     0.000  0.0000  0.0000  1.0000
 
              Baa     0.0000     0.000     0.000     0.000  1.0000  0.0000  0.0000
     3 H(1)   Bbb     0.0000     0.000     0.000     0.000 -0.0000  1.0000  0.0000
              Bcc     0.0000     0.000     0.000     0.000  0.0000  0.0000  1.0000
 
              Baa     0.0000     0.000     0.000     0.000  1.0000  0.0000  0.0000
     4 C(13)  Bbb     0.0000     0.000     0.000     0.000 -0.0000  1.0000  0.0000
              Bcc     0.0000     0.000     0.000     0.000  0.0000  0.0000  1.0000
 
              Baa     0.0000     0.000     0.000     0.000  1.0000  0.0000  0.0000
     5 H(1)   Bbb     0.0000     0.000     0.000     0.000 -0.0000  1.0000  0.0000
              Bcc     0.0000     0.000     0.000     0.000  0.0000  0.0000  1.0000
 
              Baa     0.0000     0.000     0.000     0.000  1.0000  0.0000  0.0000
     6 C(13)  Bbb     0.0000     0.000     0.000     0.000 -0.0000  1.0000  0.0000
              Bcc     0.0000     0.000     0.000     0.000  0.0000  0.0000  1.0000
 
              Baa     0.0000     0.000     0.000     0.000  1.0000  0.0000  0.0000
     7 H(1)   Bbb     0.0000     0.000     0.000     0.000 -0.0000  1.0000  0.0000
              Bcc     0.0000     0.000     0.000     0.000  0.0000  0.0000  1.0000
 
              Baa     0.0000     0.000     0.000     0.000  1.0000  0.0000  0.0000
     8 H(1)   Bbb     0.0000     0.000     0.000     0.000 -0.0000  1.0000  0.0000
              Bcc     0.0000     0.000     0.000     0.000  0.0000  0.0000  1.0000
 
              Baa     0.0000     0.000     0.000     0.000  1.0000  0.0000  0.0000
     9 C(13)  Bbb     0.0000     0.000     0.000     0.000 -0.0000  1.0000  0.0000
              Bcc     0.0000     0.000     0.000     0.000  0.0000  0.0000  1.0000
 
              Baa     0.0000     0.000     0.000     0.000  1.0000  0.0000  0.0000
    10 H(1)   Bbb     0.0000     0.000     0.000     0.000 -0.0000  1.0000  0.0000
              Bcc     0.0000     0.000     0.000     0.000  0.0000  0.0000  1.0000
 
              Baa     0.0000     0.000     0.000     0.000  1.0000  0.0000  0.0000
    11 H(1)   Bbb     0.0000     0.000     0.000     0.000 -0.0000  1.0000  0.0000
              Bcc     0.0000     0.000     0.000     0.000  0.0000  0.0000  1.0000
 
              Baa     0.0000     0.000     0.000     0.000  1.0000  0.0000  0.0000
    12 H(1)   Bbb     0.0000     0.000     0.000     0.000 -0.0000  1.0000  0.0000
              Bcc     0.0000     0.000     0.000     0.000  0.0000  0.0000  1.0000
 

 ---------------------------------------------------------------------------------

 No NMR shielding tensors so no spin-rotation constants.
 Leave Link  601 at Mon May  4 16:55:16 2020, MaxMem=  4294967296 cpu:               2.4 elap:               0.2
 (Enter /opt/gaussian/gdv-20191001-j04+/gdv/l701.exe)
 ... and contract with generalized density number  0.
 Compute integral first derivatives.
   1 Symmetry operations used in ECPInt.
 ECPInt:  NShTT=    2926 NPrTT=    8368 LenC2=    2918 LenP2D=    7270.
 LDataN:  DoStor=T MaxTD1= 7 Len=  274
 Leave Link  701 at Mon May  4 16:55:16 2020, MaxMem=  4294967296 cpu:               2.5 elap:               0.2
 (Enter /opt/gaussian/gdv-20191001-j04+/gdv/l702.exe)
 L702 exits ... SP integral derivatives will be done elsewhere.
 Leave Link  702 at Mon May  4 16:55:16 2020, MaxMem=  4294967296 cpu:               0.2 elap:               0.0
 (Enter /opt/gaussian/gdv-20191001-j04+/gdv/l703.exe)
 Integral derivatives from FoFJK, PRISM(SPDF).
 Compute integral first derivatives, UseDBF=F ICtDFT=           0.
 Calling FoFJK, ICntrl=      2127 FMM=F ISym2X=0 I1Cent= 0 IOpClX= 1 NMat=1 NMatS=1 NMatT=0.
 FoFJK:  IHMeth= 1 ICntrl=    2127 DoSepK=F KAlg= 0 I1Cent=           0 FoldK=F
 IRaf=         0 NMat=       1 IRICut=       1 DoRegI=T DoRafI=F ISym2E= 0 IDoP0=0 IntGTp=1.
 FoFCou: FMM=F IPFlag=           0 FMFlag=      100000 FMFlg1=         800
         NFxFlg=           0 DoJE=F BraDBF=F KetDBF=F FulRan=T
         wScrn=  0.000000 ICntrl=      2127 IOpCl=  1 I1Cent=           0 NGrid=           0
         NMat0=    1 NMatS0=      1 NMatT0=    0 NMatD0=    1 NMtDS0=    0 NMtDT0=    0
 Symmetry not used in FoFCou.
 Leave Link  703 at Mon May  4 16:55:23 2020, MaxMem=  4294967296 cpu:              87.9 elap:               7.4
 (Enter /opt/gaussian/gdv-20191001-j04+/gdv/l716.exe)
 Dipole        = 2.22556526D-01 1.82816197D-01 9.24270485D-02
 ***** Axes restored to original set *****
 -------------------------------------------------------------------
 Center     Atomic                   Forces (Hartrees/Bohr)
 Number     Number              X              Y              Z
 -------------------------------------------------------------------
      1        6          -0.055574928   -0.000643526   -0.007675252
      2        1          -0.000340345   -0.020819325    0.001036217
      3        1           0.047412295    0.022931243    0.003461264
      4        6           0.047018976    0.034349428   -0.009358057
      5        1          -0.048640795   -0.029966343   -0.004911247
      6        6           0.258372402   -0.162089354    0.145620299
      7        1          -0.271492594    0.150198917   -0.092962670
      8        1           0.026508749   -0.013237514   -0.012239070
      9        6          -0.025036431    0.004511863   -0.020702419
     10        1           0.000624212    0.014035791    0.001697295
     11        1           0.004397671   -0.003474917    0.008464190
     12        1           0.016750788    0.004203737   -0.012430550
 -------------------------------------------------------------------
 Cartesian Forces:  Max     0.271492594 RMS     0.080818503
 Leave Link  716 at Mon May  4 16:55:24 2020, MaxMem=  4294967296 cpu:               0.3 elap:               0.1
 (Enter /opt/gaussian/gdv-20191001-j04+/gdv/l103.exe)

 GradGradGradGradGradGradGradGradGradGradGradGradGradGradGradGradGradGrad
 Berny optimization.
 FormGI is forming the generalized inverse of G from B-inverse, IUseBI=4.
 GSVD:  received Info=                   1 from GESDD.
 Internal  Forces:  Max     0.317058898 RMS     0.048691580
 Search for a local minimum.
 Step number   1 out of a maximum of   58
 All quantities printed in internal units (Hartrees-Bohrs-Radians)
 RMS Force = .48692D-01 SwitMx=.10000D-02 MixMth= 1
 Mixed Optimization -- RFO/linear search
 Second derivative matrix not updated -- first step.
 ITU=  0
     Eigenvalues ---    0.00495   0.00558   0.01483   0.01947   0.02853
     Eigenvalues ---    0.02853   0.05377   0.06332   0.06343   0.09898
     Eigenvalues ---    0.15947   0.16000   0.16000   0.16000   0.16000
     Eigenvalues ---    0.16000   0.16000   0.21687   0.22000   0.23244
     Eigenvalues ---    0.30320   0.30785   0.37230   0.37230   0.37230
     Eigenvalues ---    0.39449   0.45063   0.45063   0.56711   0.86124
 RFO step:  Lambda=-1.36631816D-01 EMin= 4.94972719D-03
 Linear search not attempted -- first point.
 Maximum step size (   0.300) exceeded in Quadratic search.
    -- Step size scaled by   0.728
 Iteration  1 RMS(Cart)=  0.08728586 RMS(Int)=  0.00597687
 Iteration  2 RMS(Cart)=  0.00506708 RMS(Int)=  0.00043805
 Iteration  3 RMS(Cart)=  0.00002931 RMS(Int)=  0.00043575
 Iteration  4 RMS(Cart)=  0.00000002 RMS(Int)=  0.00043575
 ITry= 1 IFail=0 DXMaxC= 2.40D-01 DCOld= 1.00D+10 DXMaxT= 3.00D-01 DXLimC= 3.00D+00 Rises=F
 Variable       Old X    -DE/DX   Delta X   Delta X   Delta X     New X
                                 (Linear)    (Quad)   (Total)
    R1        1.99009   0.02069   0.00000   0.02836   0.02836   2.01845
    R2        1.91903   0.05223   0.00000   0.06475   0.06475   1.98378
    R3        2.53642  -0.00848   0.00000  -0.00877  -0.00877   2.52766
    R4        1.91903   0.05729   0.00000   0.07103   0.07103   1.99005
    R5        2.86424  -0.00672   0.00000  -0.01101  -0.01101   2.85323
    R6        1.61472   0.31706   0.00000   0.23132   0.23132   1.84605
    R7        2.30595  -0.02175   0.00000  -0.04291  -0.04291   2.26304
    R8        2.87330   0.00541   0.00000   0.00896   0.00896   2.88226
    R9        2.02201   0.01395   0.00000   0.01996   0.01996   2.04197
   R10        2.02201   0.00979   0.00000   0.01401   0.01401   2.03601
   R11        2.02201   0.01701   0.00000   0.02433   0.02433   2.04634
    A1        2.06643  -0.00327   0.00000  -0.00804  -0.00804   2.05839
    A2        2.13886  -0.00762   0.00000  -0.01870  -0.01870   2.12016
    A3        2.07789   0.01089   0.00000   0.02673   0.02673   2.10463
    A4        2.07790  -0.00702   0.00000  -0.01342  -0.01343   2.06447
    A5        2.13886   0.01842   0.00000   0.03761   0.03761   2.17647
    A6        2.06643  -0.01140   0.00000  -0.02419  -0.02419   2.04224
    A7        2.16474  -0.02091   0.00000  -0.04520  -0.04653   2.11821
    A8        1.71796  -0.00544   0.00000  -0.00247  -0.00207   1.71589
    A9        1.95502   0.03946   0.00000   0.07990   0.07846   2.03347
   A10        1.30344   0.02141   0.00000   0.07789   0.07929   1.38274
   A11        2.16048  -0.02007   0.00000  -0.04194  -0.04327   2.11721
   A12        1.79199  -0.00862   0.00000  -0.01303  -0.01305   1.77894
   A13        1.93461   0.00108   0.00000   0.00154   0.00137   1.93598
   A14        1.98189  -0.00590   0.00000  -0.01551  -0.01551   1.96638
   A15        1.81253   0.01919   0.00000   0.04908   0.04899   1.86152
   A16        1.91063  -0.00060   0.00000  -0.00474  -0.00482   1.90582
   A17        1.91063  -0.00767   0.00000  -0.01680  -0.01709   1.89354
   A18        1.91063  -0.00574   0.00000  -0.01217  -0.01207   1.89856
    D1       -0.00000  -0.00129   0.00000  -0.00576  -0.00576  -0.00576
    D2        3.14159  -0.00097   0.00000  -0.00421  -0.00421   3.13739
    D3        3.14159  -0.00169   0.00000  -0.00750  -0.00750   3.13409
    D4       -0.00000  -0.00136   0.00000  -0.00595  -0.00595  -0.00595
    D5        3.14159  -0.01617   0.00000  -0.07235  -0.07187   3.06972
    D6       -1.79483   0.00611   0.00000   0.02009   0.01956  -1.77526
    D7        0.07979   0.00508   0.00000   0.02694   0.02700   0.10679
    D8        0.00000  -0.01585   0.00000  -0.07080  -0.07033  -0.07033
    D9        1.34677   0.00643   0.00000   0.02163   0.02110   1.36787
   D10       -3.06180   0.00540   0.00000   0.02848   0.02854  -3.03326
   D11       -2.95168  -0.00653   0.00000  -0.03391  -0.03380  -2.98548
   D12       -0.79242  -0.01090   0.00000  -0.05059  -0.05050  -0.84292
   D13        1.28131  -0.00876   0.00000  -0.04232  -0.04238   1.23894
   D14        0.26947   0.01471   0.00000   0.06529   0.06519   0.33466
   D15        2.42873   0.01034   0.00000   0.04861   0.04849   2.47723
   D16       -1.78072   0.01248   0.00000   0.05688   0.05662  -1.72410
   D17       -1.12508  -0.00345   0.00000  -0.01589  -0.01572  -1.14080
   D18        1.03418  -0.00782   0.00000  -0.03258  -0.03242   1.00177
   D19        3.10792  -0.00568   0.00000  -0.02430  -0.02429   3.08362
         Item               Value     Threshold  Converged?
 Maximum Force            0.317059     0.000450     NO 
 RMS     Force            0.048692     0.000300     NO 
 Maximum Displacement     0.240413     0.001800     NO 
 RMS     Displacement     0.087335     0.001200     NO 
 Predicted change in Energy=-7.143329D-02
 Lowest energy point so far.  Saving SCF results.
 GradGradGradGradGradGradGradGradGradGradGradGradGradGradGradGradGradGrad

 Leave Link  103 at Mon May  4 16:55:24 2020, MaxMem=  4294967296 cpu:               0.3 elap:               0.1
 (Enter /opt/gaussian/gdv-20191001-j04+/gdv/l202.exe)
                          Input orientation:                          
 ---------------------------------------------------------------------
 Center     Atomic      Atomic             Coordinates (Angstroms)
 Number     Number       Type             X           Y           Z
 ---------------------------------------------------------------------
      1          6           0        0.580114   -1.532606    0.045054
      2          1           0        0.608521   -2.600216    0.028356
      3          1           0        1.489346   -1.017958    0.147298
      4          6           0       -0.572723   -0.862857   -0.062254
      5          1           0       -1.462686   -1.415422   -0.170150
      6          6           0       -0.697852    0.641681   -0.042301
      7          1           0       -1.558166    1.082256   -0.183938
      8          1           0       -1.072797    0.769270    1.087860
      9          6           0        0.605901    1.433174   -0.033091
     10          1           0        0.418473    2.483535    0.137868
     11          1           0        1.304751    1.073508    0.703839
     12          1           0        1.045721    1.318291   -1.015934
 ---------------------------------------------------------------------
                    Distance matrix (angstroms):
                    1          2          3          4          5
     1  C    0.000000
     2  H    1.068118   0.000000
     3  H    1.049771   1.814811   0.000000
     4  C    1.337577   2.102846   2.078484   0.000000
     5  H    2.057444   2.394376   2.995537   1.053092   0.000000
     6  C    2.523560   3.495926   2.752124   1.509865   2.198406
     7  H    3.385585   4.277874   3.715905   2.183889   2.499541
     8  H    3.019635   3.911882   3.262425   2.058319   2.550977
     9  C    2.966922   4.033859   2.611717   2.581039   3.523114
    10  H    4.020465   5.088481   3.661600   3.495835   4.339989
    11  H    2.784048   3.799639   2.172106   2.803804   3.823262
    12  H    3.077353   4.078772   2.647258   2.878590   3.805344
                    6          7          8          9         10
     6  C    0.000000
     7  H    0.976887   0.000000
     8  H    1.197550   1.396787   0.000000
     9  C    1.525226   2.197518   2.124929   0.000000
    10  H    2.161265   2.444227   2.462737   1.080563   0.000000
    11  H    2.180279   2.997419   2.427503   1.077412   1.758974
    12  H    2.108509   2.743749   3.035703   1.082876   1.755703
                   11         12
    11  H    0.000000
    12  H    1.756313   0.000000
 Stoichiometry    C4H8
 Framework group  C1[X(C4H8)]
 Deg. of freedom    30
 Full point group                 C1      NOp   1
 RotChk:  IX=0 Diff= 1.91D-02
 Largest Abelian subgroup         C1      NOp   1
 Largest concise Abelian subgroup C1      NOp   1
                         Standard orientation:                         
 ---------------------------------------------------------------------
 Center     Atomic      Atomic             Coordinates (Angstroms)
 Number     Number       Type             X           Y           Z
 ---------------------------------------------------------------------
      1          6           0       -1.517970   -0.591391    0.037532
      2          1           0       -2.585079   -0.633672    0.018349
      3          1           0       -0.991850   -1.493564    0.143826
      4          6           0       -0.862937    0.569690   -0.071725
      5          1           0       -1.426708    1.452087   -0.183704
      6          6           0        0.639802    0.714352   -0.048535
      7          1           0        1.069552    1.579862   -0.191769
      8          1           0        0.759759    1.094375    1.080766
      9          6           0        1.448078   -0.579007   -0.033386
     10          1           0        2.495503   -0.377471    0.139523
     11          1           0        1.095683   -1.280198    0.704832
     12          1           0        1.341305   -1.023284   -1.015139
 ---------------------------------------------------------------------
 Rotational constants (GHZ):          15.5415205           5.5934259           4.3190738
 Leave Link  202 at Mon May  4 16:55:24 2020, MaxMem=  4294967296 cpu:               0.1 elap:               0.0
 (Enter /opt/gaussian/gdv-20191001-j04+/gdv/l301.exe)
 Standard basis: def2TZVP (5D, 7F)
 Ernie: Thresh=  0.10000D-02 Tol=  0.10000D-05 Strict=F.
 There are   192 symmetry adapted cartesian basis functions of A   symmetry.
 There are   172 symmetry adapted basis functions of A   symmetry.
   172 basis functions,   268 primitive gaussians,   192 cartesian basis functions
    16 alpha electrons       16 beta electrons
       nuclear repulsion energy       119.3919420464 Hartrees.
 IExCor=  402 DFT=T Ex+Corr=B3LYP ScaHFX=  0.200000
 ScaDFX=  0.800000  0.720000  1.000000  0.810000  1.000000  0.000000
 ScaDFX=  0.000000  0.000000  0.000000  0.000000  0.000000  0.000000
 IRadAn=      7 IRanWt=     -1 IRanGd=            0 ICorTp=0 IEmpDi=  4
 NAtoms=   12 NActive=   12 NUniq=   12 SFac= 1.00D+00 NAtFMM=   60 NAOKFM=F Big=F
 Integral buffers will be    131072 words long.
 Raffenetti 2 integral format.
 Two-electron integral symmetry is turned on.
 Leave Link  301 at Mon May  4 16:55:24 2020, MaxMem=  4294967296 cpu:               0.9 elap:               0.1
 (Enter /opt/gaussian/gdv-20191001-j04+/gdv/l302.exe)
 NPDir=0 NMtPBC=     1 NCelOv=     1 NCel=       1 NClECP=     1 NCelD=      1
         NCelK=      1 NCelE2=     1 NClLst=     1 CellRange=     0.0.
 One-electron integrals computed using PRISM.
 One-electron integral symmetry used in STVInt
   1 Symmetry operations used in ECPInt.
 ECPInt:  NShTT=    2926 NPrTT=    8368 LenC2=    2918 LenP2D=    7232.
 LDataN:  DoStor=T MaxTD1= 6 Len=  172
 NBasis=   172 RedAO= T EigKep=  1.64D-04  NBF=   172
 NBsUse=   172 1.00D-06 EigRej= -1.00D+00 NBFU=   172
 Precomputing XC quadrature grid using
 IXCGrd= 4 IRadAn=           7 IRanWt=          -1 IRanGd=           0 AccXCQ= 0.00D+00.
 Generated NRdTot=       0 NPtTot=           0 NUsed=           0 NTot=          32
 NSgBfM=   192   192   192   192   192 MxSgAt=    12 MxSgA2=    12 SizInc=   0.000.
 Leave Link  302 at Mon May  4 16:55:24 2020, MaxMem=  4294967296 cpu:               3.4 elap:               0.3
 (Enter /opt/gaussian/gdv-20191001-j04+/gdv/l303.exe)
 DipDrv:  MaxL=1.
 Leave Link  303 at Mon May  4 16:55:24 2020, MaxMem=  4294967296 cpu:               0.3 elap:               0.1
 (Enter /opt/gaussian/gdv-20191001-j04+/gdv/l401.exe)
 Initial guess from the checkpoint file:  "butene.chk"
 B after Tr=    -0.000000   -0.000000    0.000000
         Rot=    0.999977   -0.000743    0.001318   -0.006567 Ang=  -0.77 deg.
 Guess basis will be translated and rotated to current coordinates.
 JPrj=2 DoOrth=T DoCkMO=T.
 Initial guess <Sx>= 0.0000 <Sy>= 0.0000 <Sz>= 0.0000 <S**2>=-0.0000 S=-0.0000
 Generating alternative initial guess.
 ExpMin= 9.52D-02 ExpMax= 1.36D+04 ExpMxC= 4.63D+02 IAcc=3 IRadAn=         7 AccDes= 0.00D+00
 Harris functional with IExCor=  402 and IRadAn=       7 diagonalized for initial guess.
 HarFok:  IExCor=  402 AccDes= 0.00D+00 IRadAn=         7 IDoV= 1 UseB2=F ITyADJ=14 ICtDFT=  3500011
 ScaDFX=  1.000000  1.000000  1.000000  1.000000  1.000000  1.000000
 ScaDFX=  1.000000  1.000000  1.000000  1.000000  1.000000  1.000000
 FoFCou: FMM=F IPFlag=           0 FMFlag=      100000 FMFlg1=           0
         NFxFlg=           0 DoJE=T BraDBF=F KetDBF=T FulRan=T
         wScrn=  0.000000 ICntrl=       500 IOpCl=  0 I1Cent=   200000004 NGrid=           0
         NMat0=    1 NMatS0=      1 NMatT0=    0 NMatD0=    1 NMtDS0=    0 NMtDT0=    0
 Petite list used in FoFCou.
 Harris En= -157.318758598313    
 Leave Link  401 at Mon May  4 16:55:26 2020, MaxMem=  4294967296 cpu:              22.6 elap:               1.9
 (Enter /opt/gaussian/gdv-20191001-j04+/gdv/l502.exe)
 Keep R1 and R2 ints in memory in canonical form, NReq=233699348.
 FoFCou: FMM=F IPFlag=           0 FMFlag=           0 FMFlg1=           0
         NFxFlg=           0 DoJE=F BraDBF=F KetDBF=F FulRan=T
         wScrn=  0.000000 ICntrl=       600 IOpCl=  0 I1Cent=           0 NGrid=           0
         NMat0=    1 NMatS0=  14878 NMatT0=    0 NMatD0=    1 NMtDS0=    0 NMtDT0=    0
 Symmetry not used in FoFCou.
 Two-electron integral symmetry not used.
 UHF open shell SCF:
 Using DIIS extrapolation, IDIIS=  1040.
 NGot=  4294967296 LenX=  4073519206 LenY=  4073481901
 Requested convergence on RMS density matrix=1.00D-08 within 128 cycles.
 Requested convergence on MAX density matrix=1.00D-06.
 Requested convergence on             energy=1.00D-06.
 No special actions if energy rises.
 Integral accuracy reduced to 1.0D-05 until final iterations.

 Cycle   1  Pass 0  IDiag  1:
 E= -157.228653084004    
 DIIS: error= 4.22D-03 at cycle   1 NSaved=   1.
 NSaved= 1 IEnMin= 1 EnMin= -157.228653084004     IErMin= 1 ErrMin= 4.22D-03
 ErrMax= 4.22D-03  0.00D+00 EMaxC= 1.00D-01 BMatC= 3.45D-02 BMatP= 3.45D-02
 IDIUse=3 WtCom= 9.58D-01 WtEn= 4.22D-02
 Coeff-Com:  0.100D+01
 Coeff-En:   0.100D+01
 Coeff:      0.100D+01
 Gap=     0.621 Goal=   None    Shift=    0.000
 Gap=     0.621 Goal=   None    Shift=    0.000
 GapD=    0.621 DampG=2.000 DampE=1.000 DampFc=2.0000 IDamp=-1.
 RMSDP=6.42D-04 MaxDP=1.33D-02              OVMax= 2.94D-02

 Cycle   2  Pass 0  IDiag  1:
 E= -157.236708750091     Delta-E=       -0.008055666087 Rises=F Damp=F
 DIIS: error= 1.32D-03 at cycle   2 NSaved=   2.
 NSaved= 2 IEnMin= 2 EnMin= -157.236708750091     IErMin= 2 ErrMin= 1.32D-03
 ErrMax= 1.32D-03  0.00D+00 EMaxC= 1.00D-01 BMatC= 1.55D-03 BMatP= 3.45D-02
 IDIUse=3 WtCom= 9.87D-01 WtEn= 1.32D-02
 Coeff-Com:  0.680D-01 0.932D+00
 Coeff-En:   0.000D+00 0.100D+01
 Coeff:      0.671D-01 0.933D+00
 Gap=     0.250 Goal=   None    Shift=    0.000
 Gap=     0.250 Goal=   None    Shift=    0.000
 RMSDP=1.80D-04 MaxDP=6.29D-03 DE=-8.06D-03 OVMax= 9.38D-03

 Cycle   3  Pass 0  IDiag  1:
 E= -157.236786856318     Delta-E=       -0.000078106228 Rises=F Damp=F
 DIIS: error= 1.11D-03 at cycle   3 NSaved=   3.
 NSaved= 3 IEnMin= 3 EnMin= -157.236786856318     IErMin= 3 ErrMin= 1.11D-03
 ErrMax= 1.11D-03  0.00D+00 EMaxC= 1.00D-01 BMatC= 1.32D-03 BMatP= 1.55D-03
 IDIUse=3 WtCom= 9.89D-01 WtEn= 1.11D-02
 Coeff-Com: -0.925D-03 0.478D+00 0.523D+00
 Coeff-En:   0.000D+00 0.441D+00 0.559D+00
 Coeff:     -0.915D-03 0.478D+00 0.523D+00
 Gap=     0.249 Goal=   None    Shift=    0.000
 Gap=     0.249 Goal=   None    Shift=    0.000
 RMSDP=8.32D-05 MaxDP=2.77D-03 DE=-7.81D-05 OVMax= 4.91D-03

 Cycle   4  Pass 0  IDiag  1:
 E= -157.237099166845     Delta-E=       -0.000312310527 Rises=F Damp=F
 DIIS: error= 2.26D-04 at cycle   4 NSaved=   4.
 NSaved= 4 IEnMin= 4 EnMin= -157.237099166845     IErMin= 4 ErrMin= 2.26D-04
 ErrMax= 2.26D-04  0.00D+00 EMaxC= 1.00D-01 BMatC= 5.20D-05 BMatP= 1.32D-03
 IDIUse=3 WtCom= 9.98D-01 WtEn= 2.26D-03
 Coeff-Com: -0.633D-02 0.114D+00 0.212D+00 0.680D+00
 Coeff-En:   0.000D+00 0.000D+00 0.000D+00 0.100D+01
 Coeff:     -0.631D-02 0.114D+00 0.211D+00 0.681D+00
 Gap=     0.249 Goal=   None    Shift=    0.000
 Gap=     0.249 Goal=   None    Shift=    0.000
 RMSDP=1.90D-05 MaxDP=4.61D-04 DE=-3.12D-04 OVMax= 1.68D-03

 Cycle   5  Pass 0  IDiag  1:
 E= -157.237109808486     Delta-E=       -0.000010641641 Rises=F Damp=F
 DIIS: error= 9.78D-05 at cycle   5 NSaved=   5.
 NSaved= 5 IEnMin= 5 EnMin= -157.237109808486     IErMin= 5 ErrMin= 9.78D-05
 ErrMax= 9.78D-05  0.00D+00 EMaxC= 1.00D-01 BMatC= 8.80D-06 BMatP= 5.20D-05
 IDIUse=1 WtCom= 1.00D+00 WtEn= 0.00D+00
 Coeff-Com: -0.356D-02 0.440D-01 0.979D-01 0.393D+00 0.468D+00
 Coeff:     -0.356D-02 0.440D-01 0.979D-01 0.393D+00 0.468D+00
 Gap=     0.249 Goal=   None    Shift=    0.000
 Gap=     0.249 Goal=   None    Shift=    0.000
 RMSDP=6.53D-06 MaxDP=2.60D-04 DE=-1.06D-05 OVMax= 9.29D-04

 Initial convergence to 1.0D-05 achieved.  Increase integral accuracy.
 Cycle   6  Pass 1  IDiag  1:
 E= -157.237111727943     Delta-E=       -0.000001919457 Rises=F Damp=F
 DIIS: error= 3.09D-05 at cycle   1 NSaved=   1.
 NSaved= 1 IEnMin= 1 EnMin= -157.237111727943     IErMin= 1 ErrMin= 3.09D-05
 ErrMax= 3.09D-05  0.00D+00 EMaxC= 1.00D-01 BMatC= 6.48D-07 BMatP= 6.48D-07
 IDIUse=1 WtCom= 1.00D+00 WtEn= 0.00D+00
 Coeff-Com:  0.100D+01
 Coeff:      0.100D+01
 Gap=     0.249 Goal=   None    Shift=    0.000
 Gap=     0.249 Goal=   None    Shift=    0.000
 RMSDP=6.53D-06 MaxDP=2.60D-04 DE=-1.92D-06 OVMax= 6.28D-04

 Cycle   7  Pass 1  IDiag  1:
 E= -157.237111351162     Delta-E=        0.000000376780 Rises=F Damp=F
 DIIS: error= 5.20D-05 at cycle   2 NSaved=   2.
 NSaved= 2 IEnMin= 1 EnMin= -157.237111727943     IErMin= 1 ErrMin= 3.09D-05
 ErrMax= 5.20D-05  0.00D+00 EMaxC= 1.00D-01 BMatC= 2.12D-06 BMatP= 6.48D-07
 IDIUse=1 WtCom= 1.00D+00 WtEn= 0.00D+00
 Coeff-Com:  0.646D+00 0.354D+00
 Coeff:      0.646D+00 0.354D+00
 Gap=     0.249 Goal=   None    Shift=    0.000
 Gap=     0.249 Goal=   None    Shift=    0.000
 RMSDP=2.79D-06 MaxDP=1.04D-04 DE= 3.77D-07 OVMax= 4.09D-04

 Cycle   8  Pass 1  IDiag  1:
 E= -157.237111899655     Delta-E=       -0.000000548493 Rises=F Damp=F
 DIIS: error= 3.34D-06 at cycle   3 NSaved=   3.
 NSaved= 3 IEnMin= 3 EnMin= -157.237111899655     IErMin= 3 ErrMin= 3.34D-06
 ErrMax= 3.34D-06  0.00D+00 EMaxC= 1.00D-01 BMatC= 1.08D-08 BMatP= 6.48D-07
 IDIUse=1 WtCom= 1.00D+00 WtEn= 0.00D+00
 Coeff-Com:  0.259D+00 0.153D+00 0.588D+00
 Coeff:      0.259D+00 0.153D+00 0.588D+00
 Gap=     0.249 Goal=   None    Shift=    0.000
 Gap=     0.249 Goal=   None    Shift=    0.000
 RMSDP=3.03D-07 MaxDP=6.93D-06 DE=-5.48D-07 OVMax= 1.70D-05

 Cycle   9  Pass 1  IDiag  1:
 E= -157.237111902114     Delta-E=       -0.000000002459 Rises=F Damp=F
 DIIS: error= 8.98D-07 at cycle   4 NSaved=   4.
 NSaved= 4 IEnMin= 4 EnMin= -157.237111902114     IErMin= 4 ErrMin= 8.98D-07
 ErrMax= 8.98D-07  0.00D+00 EMaxC= 1.00D-01 BMatC= 7.98D-10 BMatP= 1.08D-08
 IDIUse=1 WtCom= 1.00D+00 WtEn= 0.00D+00
 Coeff-Com:  0.879D-01 0.532D-01 0.284D+00 0.575D+00
 Coeff:      0.879D-01 0.532D-01 0.284D+00 0.575D+00
 Gap=     0.249 Goal=   None    Shift=    0.000
 Gap=     0.249 Goal=   None    Shift=    0.000
 RMSDP=8.10D-08 MaxDP=2.03D-06 DE=-2.46D-09 OVMax= 4.14D-06

 Cycle  10  Pass 1  IDiag  1:
 E= -157.237111902310     Delta-E=       -0.000000000196 Rises=F Damp=F
 DIIS: error= 1.68D-07 at cycle   5 NSaved=   5.
 NSaved= 5 IEnMin= 5 EnMin= -157.237111902310     IErMin= 5 ErrMin= 1.68D-07
 ErrMax= 1.68D-07  0.00D+00 EMaxC= 1.00D-01 BMatC= 3.24D-11 BMatP= 7.98D-10
 IDIUse=1 WtCom= 1.00D+00 WtEn= 0.00D+00
 Coeff-Com: -0.148D-02-0.400D-03 0.252D-01 0.185D+00 0.792D+00
 Coeff:     -0.148D-02-0.400D-03 0.252D-01 0.185D+00 0.792D+00
 Gap=     0.249 Goal=   None    Shift=    0.000
 Gap=     0.249 Goal=   None    Shift=    0.000
 RMSDP=2.89D-08 MaxDP=7.70D-07 DE=-1.96D-10 OVMax= 1.17D-06

 Cycle  11  Pass 1  IDiag  1:
[...]
   D11        3.14062   0.00001   0.00000   0.00097   0.00097  -3.14159
   D12       -1.05218  -0.00000   0.00000   0.00082   0.00082  -1.05136
   D13        1.05050   0.00000   0.00000   0.00086   0.00086   1.05136
   D14        0.99683   0.00000   0.00000   0.00108   0.00108   0.99791
   D15        3.08722  -0.00000   0.00000   0.00093   0.00093   3.08814
   D16       -1.09329  -0.00000   0.00000   0.00097   0.00097  -1.09232
   D17       -0.99904   0.00001   0.00000   0.00113   0.00113  -0.99791
   D18        1.09135   0.00000   0.00000   0.00097   0.00097   1.09232
   D19       -3.08916   0.00000   0.00000   0.00102   0.00102  -3.08814
         Item               Value     Threshold  Converged?
 Maximum Force            0.000086     0.000450     YES
 RMS     Force            0.000017     0.000300     YES
 Maximum Displacement     0.001506     0.001800     YES
 RMS     Displacement     0.000506     0.001200     YES
 Predicted change in Energy=-4.141345D-08
 Optimization completed.
    -- Stationary point found.
                           ----------------------------
                           !   Optimized Parameters   !
                           ! (Angstroms and Degrees)  !
 --------------------------                            --------------------------
 ! Name  Definition              Value          Derivative Info.                !
 --------------------------------------------------------------------------------
 ! R1    R(1,2)                  1.0826         -DE/DX =    0.0                 !
 ! R2    R(1,3)                  1.083          -DE/DX =    0.0                 !
 ! R3    R(1,4)                  1.3277         -DE/DX =    0.0                 !
 ! R4    R(4,5)                  1.0876         -DE/DX =    0.0                 !
 ! R5    R(4,6)                  1.5021         -DE/DX =    0.0                 !
 ! R6    R(6,7)                  1.0967         -DE/DX =    0.0001              !
 ! R7    R(6,8)                  1.0969         -DE/DX =    0.0                 !
 ! R8    R(6,9)                  1.525          -DE/DX =    0.0                 !
 ! R9    R(9,10)                 1.0912         -DE/DX =    0.0                 !
 ! R10   R(9,11)                 1.0919         -DE/DX =    0.0                 !
 ! R11   R(9,12)                 1.0919         -DE/DX =    0.0                 !
 ! A1    A(2,1,3)              116.4807         -DE/DX =    0.0                 !
 ! A2    A(2,1,4)              121.1191         -DE/DX =    0.0                 !
 ! A3    A(3,1,4)              122.4003         -DE/DX =    0.0                 !
 ! A4    A(1,4,5)              118.3345         -DE/DX =    0.0                 !
 ! A5    A(1,4,6)              126.9415         -DE/DX =    0.0                 !
 ! A6    A(5,4,6)              114.7241         -DE/DX =    0.0                 !
 ! A7    A(4,6,7)              108.1191         -DE/DX =    0.0                 !
 ! A8    A(4,6,8)              108.1123         -DE/DX =    0.0                 !
 ! A9    A(4,6,9)              116.1414         -DE/DX =    0.0                 !
 ! A10   A(7,6,8)              104.7127         -DE/DX =    0.0                 !
 ! A11   A(7,6,9)              109.5705         -DE/DX =    0.0                 !
 ! A12   A(8,6,9)              109.5631         -DE/DX =    0.0                 !
 ! A13   A(6,9,10)             110.5219         -DE/DX =    0.0                 !
 ! A14   A(6,9,11)             111.4406         -DE/DX =    0.0                 !
 ! A15   A(6,9,12)             111.4447         -DE/DX =    0.0                 !
 ! A16   A(10,9,11)            107.7395         -DE/DX =    0.0                 !
 ! A17   A(10,9,12)            107.7253         -DE/DX =    0.0                 !
 ! A18   A(11,9,12)            107.8025         -DE/DX =    0.0                 !
 ! D1    D(2,1,4,5)              0.0031         -DE/DX =    0.0                 !
 ! D2    D(2,1,4,6)            179.9947         -DE/DX =    0.0                 !
 ! D3    D(3,1,4,5)           -179.9958         -DE/DX =    0.0                 !
 ! D4    D(3,1,4,6)             -0.0042         -DE/DX =    0.0                 !
 ! D5    D(1,4,6,7)            123.6336         -DE/DX =    0.0                 !
 ! D6    D(1,4,6,8)           -123.5248         -DE/DX =    0.0                 !
 ! D7    D(1,4,6,9)              0.0467         -DE/DX =    0.0                 !
 ! D8    D(5,4,6,7)            -56.3746         -DE/DX =    0.0                 !
 ! D9    D(5,4,6,8)             56.467          -DE/DX =    0.0                 !
 ! D10   D(5,4,6,9)           -179.9614         -DE/DX =    0.0                 !
 ! D11   D(4,6,9,10)           179.9442         -DE/DX =    0.0                 !
 ! D12   D(4,6,9,11)           -60.2853         -DE/DX =    0.0                 !
 ! D13   D(4,6,9,12)            60.1891         -DE/DX =    0.0                 !
 ! D14   D(7,6,9,10)            57.1142         -DE/DX =    0.0                 !
 ! D15   D(7,6,9,11)           176.8846         -DE/DX =    0.0                 !
 ! D16   D(7,6,9,12)           -62.6409         -DE/DX =    0.0                 !
 ! D17   D(8,6,9,10)           -57.2408         -DE/DX =    0.0                 !
 ! D18   D(8,6,9,11)            62.5296         -DE/DX =    0.0                 !
 ! D19   D(8,6,9,12)          -176.9959         -DE/DX =    0.0                 !
 --------------------------------------------------------------------------------
 GradGradGradGradGradGradGradGradGradGradGradGradGradGradGradGradGradGrad

 Leave Link  103 at Mon May  4 17:05:58 2020, MaxMem=  4294967296 cpu:               0.3 elap:               0.1
 (Enter /opt/gaussian/gdv-20191001-j04+/gdv/l9999.exe)

 ----------------------------------------------------------------------

 Electric dipole moment (input orientation):
 (Debye = 10**-18 statcoulomb cm , SI units = C m)
                  (au)            (Debye)         (10**-30 SI)
   Tot        0.193287D+00      0.491286D+00      0.163875D+01
   x         -0.113132D+00     -0.287552D+00     -0.959171D+00
   y          0.155575D+00      0.395433D+00      0.131902D+01
   z          0.189045D-01      0.480504D-01      0.160279D+00

 Dipole polarizability, Alpha (input orientation).
 (esu units = cm**3 , SI units = C**2 m**2 J**-1)
 Alpha(0;0):
               (au)            (10**-24 esu)      (10**-40 SI)
   iso        0.494646D+02      0.732990D+01      0.815561D+01
   aniso      0.190540D+02      0.282351D+01      0.314158D+01
   xx         0.532521D+02      0.789114D+01      0.878008D+01
   yx        -0.505905D+01     -0.749674D+00     -0.834125D+00
   yy         0.564882D+02      0.837068D+01      0.931364D+01
   zx        -0.187021D+01     -0.277136D+00     -0.308355D+00
   zy         0.128479D+01      0.190386D+00      0.211833D+00
   zz         0.386536D+02      0.572788D+01      0.637312D+01

 ----------------------------------------------------------------------

 Dipole oientation:
     6         -0.58709389         -0.62702075         -2.99304368
     1         -1.51883078         -1.40528137         -4.63964886
     1          0.96058150          0.66478074         -3.34560834
     6         -1.32392649         -1.24143141         -0.67462287
     1         -2.89343998         -2.55167543         -0.46499307
     6         -0.21557379         -0.31578033          1.76924515
     1         -1.73595662          0.55170444          2.87885148
     1          0.36917254         -1.96677347          2.87789537
     6          1.98896488          1.52686689          1.54630588
     1          2.65563872          2.08597717          3.41573509
     1          3.57901161          0.68220584          0.53843786
     1          1.44056836          3.24059747          0.53642366

 Electric dipole moment (dipole orientation):
 (Debye = 10**-18 statcoulomb cm , SI units = C m)
                  (au)            (Debye)         (10**-30 SI)
   Tot        0.193287D+00      0.491286D+00      0.163875D+01
   x          0.000000D+00      0.000000D+00      0.000000D+00
   y          0.000000D+00      0.000000D+00      0.000000D+00
   z          0.193287D+00      0.491286D+00      0.163875D+01

 Dipole polarizability, Alpha (dipole orientation).
 (esu units = cm**3 , SI units = C**2 m**2 J**-1)
 Alpha(0;0):
               (au)            (10**-24 esu)      (10**-40 SI)
   iso        0.494646D+02      0.732990D+01      0.815561D+01
   aniso      0.190540D+02      0.282351D+01      0.314158D+01
   xx         0.449991D+02      0.666818D+01      0.741935D+01
   yx         0.551875D+01      0.817794D+00      0.909919D+00
   yy         0.430027D+02      0.637234D+01      0.709019D+01
   zx        -0.744278D-01     -0.110291D-01     -0.122715D-01
   zy        -0.573815D-01     -0.850306D-02     -0.946093D-02
   zz         0.603921D+02      0.894918D+01      0.995731D+01

 ----------------------------------------------------------------------
 Unable to Open any file for archive entry.
 1\1\GINC-NODE12\Freq\UB3LYP\def2TZVP\C4H8\AABOUTAKA\04-May-2020\0\\#P 
 Geom=AllCheck Guess=TCheck SCRF=Check GenChk UB3LYP/def2TZVP Freq\\tit
 le\\0,1\C,0.5709195872,-1.5441477473,-0.0696822758\H,0.5649972911,-2.6
 258731655,-0.1120063775\H,1.5368917637,-1.0626747082,-0.158786133\C,-0
 .554928841,-0.8572480934,0.0837879572\H,-1.4887678608,-1.4085607181,0.
 1665853445\C,-0.6981765802,0.6361314207,0.159300588\H,-1.398341672,0.9
 516351726,-0.6236670549\H,-1.2036091683,0.8830421924,1.1010026936\C,0.
 5918633391,1.4414562424,0.0457338386\H,0.3825096939,2.5103644676,0.110
 83538\H,1.2910605967,1.1900561513,0.8458227682\H,1.0941843307,1.258475
 6854,-0.9063195688\\Version=ES64L-GDVRevJ.04+\State=1-A\HF=-157.284922
 8\S2=0.\S2-1=0.\S2A=0.\RMSD=1.806e-09\RMSF=2.757e-05\ZeroPoint=0.10827
 09\Thermal=0.113417\ETot=-157.1715058\HTot=-157.1705616\GTot=-157.2038
 681\Dipole=-0.1131318,0.1555752,0.0189045\DipoleDeriv=-0.0815733,0.159
 6314,-0.0205164,0.1109481,-0.0661744,-0.0023146,-0.0224539,-0.0077497,
 -0.3193069,0.0527277,-0.0207715,0.0103231,0.020352,-0.1124512,-0.01279
 59,0.0119572,-0.0081741,0.1505463,-0.0524173,-0.0479128,0.0195303,-0.0
 865366,0.0283425,0.005299,0.017995,0.000964,0.1368453,0.1421583,-0.070
 3944,-0.0433931,-0.1001773,0.2862373,0.0314668,-0.0447177,0.0281708,-0
 .2138877,-0.0886932,-0.0712612,0.0215353,-0.0867319,-0.0564705,0.00238
 96,0.0209269,0.000622,0.1263155,0.062345,0.0924713,0.0185943,0.0379227
 ,0.028145,-0.0109474,0.0165893,-0.0173022,0.1931475,-0.0473932,-0.0053
 313,-0.0899281,0.0483063,-0.0393931,0.0178848,-0.1219857,0.0601529,-0.
 0267976,-0.0002105,-0.0253485,0.08192,0.0336886,-0.0330797,-0.0257104,
 0.1184786,-0.0552622,-0.0804474,0.0312601,-0.0202282,0.0071962,-0.0421
 467,0.0338499,0.0020078,0.0063399,-0.0003772,0.1013514,0.0456698,0.038
 5061,0.0050904,0.0058176,-0.175959,-0.0105851,0.0038268,-0.0142213,0.0
 768791,-0.050213,-0.0090744,-0.0756173,0.0393387,0.0502282,0.0592246,-
 0.093242,0.0311225,-0.0507936,-0.0136604,-0.0202865,0.0652654,0.019218
 5,0.0567251,-0.0559192,0.0862855,-0.0179455,-0.0938518\Polar=53.252051
 ,-5.0590527,56.4881775,-1.8702067,1.2847876,38.6536372\Quadrupole=0.74
 24758,0.3500661,-1.0925419,-0.0845267,-0.2117125,0.0675961\PG=C01 [X(C
 4H8)]\NImag=0\\0.77799220,-0.08877305,0.69348233,-0.07882458,0.0332948
 8,0.11625890,-0.05572458,-0.00983626,0.00212930,0.05337886,-0.00492640
 ,-0.33614621,-0.01148584,0.00270774,0.35689657,0.00232524,-0.01093620,
 -0.03392059,-0.00325539,0.01295101,0.02424576,-0.27307493,-0.10964877,
 0.02227905,0.00244387,0.00160443,0.00001337,0.29393809,-0.11390492,-0.
 11557272,0.00957604,-0.02495469,-0.00910434,0.00235501,0.12115667,0.11
 479940,0.02211023,0.00909875,-0.03747339,-0.00104184,-0.00062089,0.002
 08664,-0.02548453,-0.00995014,0.02600598,-0.42946193,0.19065546,0.0499
 0801,0.00200106,-0.00219371,0.00004597,-0.02259680,0.01436986,0.003760
 27,0.79784342,0.18384678,-0.22691972,-0.02756324,0.03108068,-0.0140237
 0,-0.00416785,-0.01397393,0.01276188,0.00184112,-0.09811474,0.60399715
 ,0.04964030,-0.02832999,-0.05843257,0.00136978,-0.00043905,0.00302539,
 0.00263442,-0.00133616,0.00551095,-0.07618374,0.02892246,0.16272777,-0
 .02443557,-0.01546402,0.00286546,0.00121086,0.00036970,-0.00102763,-0.
 00274235,0.00311953,0.00176020,-0.24959105,-0.11441756,0.01880256,0.26
 975279,0.01679216,0.01041391,-0.00173075,0.00007323,0.00129180,0.00036
 439,0.00307377,-0.00085831,-0.00084922,-0.11815182,-0.12592783,0.00988
 218,0.12357541,0.13299828,0.00414505,0.00188491,0.00621829,-0.00103908
 ,0.00033133,-0.00795801,0.00175804,-0.00085489,0.01162389,0.01865608,0
 .00946445,-0.04305771,-0.02237592,-0.00961830,0.02849788,-0.00002952,0
 .03051808,0.00213698,-0.00339663,0.00169924,0.00190707,0.00073321,-0.0
 0005669,-0.00091152,-0.09086445,0.00340752,0.00192995,0.00406455,-0.02
 797280,-0.00136186,0.51717557,0.01061608,-0.01829900,-0.00224481,-0.00
 003764,0.00158110,-0.00044851,-0.00206395,0.00016394,0.00053090,0.0067
 8016,-0.20434173,-0.00592151,0.00306648,-0.01395566,-0.00097427,-0.015
 27481,0.47424699,0.00134632,-0.00447200,0.00781242,0.00183414,-0.00064
 198,0.01275609,-0.00099073,0.00030597,-0.00725404,0.00206649,-0.005516
 92,-0.07518718,-0.00012309,0.00251191,0.00200450,0.00254240,-0.0011204
 1,0.54258935,0.00178084,0.00030062,-0.00042319,-0.00011786,0.00023570,
 0.00052630,-0.00003288,-0.00021339,-0.00060592,-0.00442007,0.00545585,
 -0.00215761,0.00042752,0.00040477,0.00036710,-0.14283704,0.04122147,-0
 .11201873,0.15868291,-0.00180489,-0.00364671,-0.00042406,0.00041577,-0
 .00036929,-0.00263159,0.00017314,0.00003420,0.00124775,0.02422281,-0.0
 1409215,0.02420492,-0.00080105,0.00091691,-0.00064321,0.04439123,-0.06
 563872,0.05362974,-0.04703574,0.07671591,0.00074366,-0.00025194,-0.000
 13754,-0.00003417,-0.00008088,-0.00035011,0.00004864,-0.00003877,0.000
 13611,0.00225529,-0.00109780,0.00317057,0.00006684,0.00074358,0.000316
 53,-0.11279580,0.05171056,-0.17357771,0.12406795,-0.05695932,0.1891708
 5,0.00160192,0.00029929,0.00005315,-0.00022427,0.00028713,-0.00051102,
 0.00009233,-0.00024615,0.00058716,-0.00385454,0.00518197,0.00397449,0.
 00032261,0.00026305,-0.00034026,-0.09494423,0.02144798,0.09544618,0.00
 873972,-0.00478948,-0.01736243,0.10567336,-0.00161686,-0.00368249,0.00
 052090,0.00098068,-0.00057368,0.00245433,-0.00010388,0.00012816,-0.001
 25266,0.01812421,-0.01191854,-0.03017093,-0.00062614,0.00091521,0.0008
 4894,0.02404569,-0.05747743,-0.05006501,-0.00434704,0.00229935,0.00827
 249,-0.02508087,0.06784276,-0.00127515,-0.00010137,0.00008292,0.000086
 04,-0.00000120,-0.00003708,-0.00004708,0.00009528,-0.00008509,0.000823
 89,-0.00131019,0.00042730,-0.00012564,-0.00077516,0.00041718,0.0964554
 6,-0.04748023,-0.22931474,0.00960135,-0.00514708,-0.02352608,-0.106685
 27,0.05318517,0.25074844,0.00090120,0.00236092,-0.00013039,-0.00023696
 ,0.00019355,0.00004069,0.00010762,0.00057091,0.00003445,0.00510706,-0.
 00391531,-0.00067172,0.00091399,0.00356902,0.00024012,-0.16167663,-0.0
 4680539,0.00740772,-0.01985455,-0.01252947,0.00240794,-0.01479062,-0.0
 0910487,0.00083840,0.49544077,-0.00073015,0.00037233,0.00013889,-0.000
 59014,0.00033731,0.00007650,-0.00024763,-0.00094041,-0.00001763,-0.031
 28592,-0.02209786,0.00263404,0.00080039,-0.00509753,-0.00036114,-0.046
 45622,-0.10731190,0.00413501,0.00669069,0.00425584,-0.00146658,0.00504
 971,0.00300722,0.00035840,-0.04664861,0.54151979,-0.00025242,-0.000206
 72,-0.00106548,0.00001047,-0.00001096,0.00006154,0.00000328,-0.0001100
 7,0.00021260,-0.00176061,-0.00045778,0.00068014,0.00012663,-0.00067527
 ,0.00171367,0.00742070,0.00418626,-0.08011510,-0.02075903,-0.01362889,
 0.00256439,0.02532805,0.01628296,-0.00125823,0.00569645,0.00440235,0.5
 6178851,-0.00070112,0.00032226,0.00011595,0.00038254,0.00005664,-0.000
 02889,0.00061078,0.00020692,-0.00011153,-0.00578567,-0.00136191,0.0006
 8390,0.00006293,-0.00172287,-0.00003788,0.00566888,-0.03087660,-0.0020
 1738,0.00126128,0.00058426,-0.00040519,0.00127503,0.00063686,0.0001858
 2,-0.05734897,0.05429782,0.00326093,0.06277677,-0.00014108,0.00036971,
 0.00002168,-0.00005359,-0.00007452,-0.00000096,-0.00011115,0.00021599,
 0.00003867,-0.00378966,0.00018134,0.00040560,0.00014580,-0.00103362,-0
 .00007063,0.00412755,-0.01616484,-0.00103754,-0.00005129,0.00064066,-0
 .00057677,0.00009896,0.00056449,0.00061155,0.05219184,-0.29689288,-0.0
 1558234,-0.05556666,0.32377304,0.00009768,-0.00003126,0.00021132,-0.00
 003319,-0.00001350,0.00010985,-0.00012462,0.00000314,-0.00044495,0.000
 58606,0.00012778,0.00068550,0.00003661,0.00013939,0.00034257,-0.000649
 43,0.00289715,-0.00134132,0.00008211,-0.00037843,0.00006657,-0.0003479
 9,0.00028105,0.00011916,0.00317850,-0.01581510,-0.04809731,-0.00402641
 ,0.01705159,0.04729611,0.00051617,-0.00037802,0.00016993,0.00017716,-0
 .00000749,-0.00005355,0.00030382,-0.00003294,-0.00015870,0.00083958,0.
 00144162,0.00029900,0.00004815,0.00001113,0.00026896,-0.01958558,0.006
 79126,-0.02156902,-0.00437604,-0.00362547,0.00114858,0.00071718,0.0006
 9172,0.00020885,-0.14952552,0.03873452,-0.11983570,-0.00452103,0.00180
 773,-0.00437567,0.16521559,0.00033869,-0.00018049,-0.00015671,0.000111
 07,0.00008329,0.00015055,-0.00001755,-0.00078491,-0.00064681,-0.000359
 07,0.00118962,-0.00039147,0.00014643,0.00016448,0.00030253,-0.01098008
 ,0.00424601,-0.01443772,-0.00338281,-0.00152705,0.00007042,0.00079899,
 0.00042870,0.00012548,0.03940108,-0.06196728,0.04631307,0.01963376,-0.
 00683128,0.02432401,-0.04119819,0.06450080,-0.00077115,0.00000607,0.00
 027657,0.00033715,0.00007903,-0.00003623,0.00044210,-0.00013626,-0.000
 23081,-0.00012584,0.00033475,0.00019363,0.00008475,-0.00022151,-0.0000
 9776,0.00228062,-0.00158005,0.00280338,0.00096274,0.00040691,0.0014121
 4,-0.00028666,-0.00051884,0.00077673,-0.12070020,0.04516906,-0.1896095
 4,0.00259335,-0.00012204,0.00199227,0.13322385,-0.05087361,0.20312796,
 0.00063531,-0.00035652,-0.00027967,0.00010595,-0.00002653,0.00001785,0
 .00021721,-0.00001513,0.00006174,0.00078340,0.00136902,-0.00032132,-0.
 00003442,0.00008496,-0.00028036,-0.01430813,0.00513497,0.02607570,0.00
 074617,0.00079888,-0.00014131,-0.00460851,-0.00359950,-0.00006668,-0.0
 9903738,0.02038554,0.10076127,-0.00368142,0.00134155,0.00557636,0.0101
 9052,-0.00449233,-0.01804070,0.10899128,0.00030364,-0.00019094,0.00005
 302,0.00010314,0.00010168,-0.00016668,0.00015885,-0.00084288,0.0005801
 7,-0.00025758,0.00119154,0.00053991,0.00008503,0.00017236,-0.00030972,
 -0.00744872,0.00295124,0.01670894,0.00072118,0.00041104,-0.00032499,-0
 .00331058,-0.00153375,0.00043934,0.02071632,-0.05518465,-0.04051261,0.
 01378950,-0.00474810,-0.02858581,-0.00423587,0.00067811,0.00745649,-0.
 02062491,0.05699434,0.00071483,0.00004487,0.00016915,-0.00036320,-0.00
 006707,0.00001673,-0.00053195,0.00009085,-0.00008790,-0.00003187,-0.00
 057678,0.00025621,-0.00009076,0.00022875,-0.00002104,0.00104544,0.0004
 4492,-0.00117565,0.00035692,0.00032326,0.00075429,0.00014461,0.0001616
 0,0.00164949,0.10165804,-0.03925381,-0.24687519,-0.00021266,-0.0007388
 1,-0.00093977,0.01067347,-0.00477974,-0.02060835,-0.11336288,0.0441219
 5,0.26686203\\-0.00004039,0.00000327,0.00000657,0.00000648,-0.00000131
 ,-0.00000108,0.00002345,0.00001007,0.00000020,0.00005304,0.00000893,-0
 .00001302,-0.00002699,-0.00001173,0.00000307,-0.00007267,0.00001590,-0
 .00007661,0.00004737,-0.00002058,0.00006980,-0.00000944,0.00000397,0.0
 0001766,0.00003237,0.00000010,0.00000368,-0.00000341,-0.00000250,-0.00
 001792,-0.00000716,-0.00001133,-0.00000022,-0.00000267,0.00000522,0.00
 000786\\\@
 The archive entry for this job was punched.


 If fifty million people say a stupid thing,
 it is still a stupid thing.
                   -- Anatole France
 Job cpu time:       0 days  1 hours  0 minutes  6.1 seconds.
 Elapsed time:       0 days  0 hours  5 minutes  1.7 seconds.
 File lengths (MBytes):  RWF=     61 Int=      0 D2E=      0 Chk=      5 Scr=      1
 Normal termination of Gaussian DV at Mon May  4 17:05:58 2020.
