************************************************************
This is node04.cluster of cluster Pinconning.
Date: Mon May  4 18:48:15 PDT 2020
************************************************************
 Set GAUSS_MDEF to "32GB".
 Set GAUSS_PDEF to "12".
 Entering Gaussian System, Link 0=gdv
 Initial command:
 /opt/gaussian/gdv-20191001-j04+/gdv/l1.exe "/tmp/720708.1.allnodes.q/Gau-17628.inp" -scrdir="/tmp/720708.1.allnodes.q/"
 Default is to use a total of  12 processors:
                               12 via shared-memory
                                1 via Linda
 Entering Link 1 = /opt/gaussian/gdv-20191001-j04+/gdv/l1.exe PID=     17629.
  
 Copyright (c) 1988-2019, Gaussian, Inc.  All Rights Reserved.
  
 This is the private, development version of
 the Gaussian(R) DV system of programs. It is based on
 the Gaussian(R) 16 system (copyright 2016, Gaussian, Inc.),
 the Gaussian(R) 09 system (copyright 2009, Gaussian, Inc.),
 the Gaussian(R) 03 system (copyright 2003, Gaussian, Inc.),
 the Gaussian(R) 98 system (copyright 1998, Gaussian, Inc.),
 the Gaussian(R) 94 system (copyright 1995, Gaussian, Inc.),
 the Gaussian 92(TM) system (copyright 1992, Gaussian, Inc.),
 the Gaussian 90(TM) system (copyright 1990, Gaussian, Inc.),
 the Gaussian 88(TM) system (copyright 1988, Gaussian, Inc.),
 the Gaussian 86(TM) system (copyright 1986, Carnegie Mellon
 University), and the Gaussian 82(TM) system (copyright 1983,
 Carnegie Mellon University). Gaussian is a federally registered
 trademark of Gaussian, Inc.
  
 This software contains proprietary and confidential information,
 including trade secrets, belonging to Gaussian, Inc.
  
 This software is provided under written license and may be
 used, copied, transmitted, or stored only in accord with that
 written license.
  
 The following legend is applicable only to US Government
 contracts under FAR:
  
                    RESTRICTED RIGHTS LEGEND
  
 Use, reproduction and disclosure by the US Government is
 subject to restrictions as set forth in subparagraphs (a)
 and (c) of the Commercial Computer Software - Restricted
 Rights clause in FAR 52.227-19.
  
 Gaussian, Inc.
 340 Quinnipiac St., Bldg. 40, Wallingford CT 06492
  
  
 ---------------------------------------------------------------
 Warning -- This program may not be used in any manner that
 competes with the business of Gaussian, Inc. or will provide
 assistance to any competitor of Gaussian, Inc.  The licensee
 of this program is prohibited from giving any competitor of
 Gaussian, Inc. access to this program.  By using this program,
 the user acknowledges that Gaussian, Inc. is engaged in the
 business of creating and licensing software in the field of
 computational chemistry and represents and warrants to the
 licensee that it is not a competitor of Gaussian, Inc. and that
 it will not use this program in any manner prohibited above.
 ---------------------------------------------------------------
  

 Cite this work as:
 Gaussian Development Version, Revision J.04+,
 M. J. Frisch, G. W. Trucks, H. B. Schlegel, G. E. Scuseria, 
 M. A. Robb, J. R. Cheeseman, G. Scalmani, V. Barone, 
 G. A. Petersson, H. Nakatsuji, X. Li, M. Caricato, A. V. Marenich, 
 J. Bloino, B. G. Janesko, R. Gomperts, B. Mennucci, H. P. Hratchian, 
 J. V. Ortiz, A. F. Izmaylov, J. L. Sonnenberg, D. Williams-Young, 
 F. Ding, F. Lipparini, F. Egidi, J. Goings, B. Peng, A. Petrone, 
 T. Henderson, D. Ranasinghe, V. G. Zakrzewski, J. Gao, N. Rega, 
 G. Zheng, W. Liang, M. Hada, M. Ehara, K. Toyota, R. Fukuda, 
 J. Hasegawa, M. Ishida, T. Nakajima, Y. Honda, O. Kitao, H. Nakai, 
 T. Vreven, K. Throssell, J. A. Montgomery, Jr., J. E. Peralta, 
 F. Ogliaro, M. J. Bearpark, J. J. Heyd, E. N. Brothers, K. N. Kudin, 
 V. N. Staroverov, T. A. Keith, R. Kobayashi, J. Normand, 
 K. Raghavachari, A. P. Rendell, J. C. Burant, S. S. Iyengar, 
 J. Tomasi, M. Cossi, J. M. Millam, M. Klene, C. Adamo, R. Cammi, 
 J. W. Ochterski, R. L. Martin, K. Morokuma, O. Farkas, 
 J. B. Foresman, and D. J. Fox, Gaussian, Inc., Wallingford CT, 2019.
 
 *******************************************
 Gaussian DV:  ES64L-GDVRevJ.04+ 11-Sep-2019
                  4-May-2020 
 *******************************************
 %chk=propenol
 ------------------------------------------------------------------
 #P ub3lyp def2tzvp pop=orbitals=20 integral=superfinegrid opt freq
 ------------------------------------------------------------------
 1/18=20,19=15,26=5,38=1/1,3;
 2/9=110,12=2,17=6,18=5,40=1/2;
 3/5=44,7=101,11=2,25=1,30=1,71=1,74=-5,75=-7,116=2/1,2,3;
 4//1;
 5/5=2,38=5/2;
 6/7=2,8=2,9=2,10=2,28=1,96=20/1;
 7//1,2,3,16;
 1/18=20,19=15,26=5/3(2);
 2/9=110/2;
 99//99;
 2/9=110/2;
 3/5=44,7=101,11=2,25=1,30=1,71=1,74=-5,75=-7,116=2/1,2,3;
 4/5=5,16=3,69=1/1;
 5/5=2,38=5/2;
 7//1,2,3,16;
 1/18=20,19=15,26=5/3(-5);
 2/9=110/2;
 6/7=2,8=2,9=2,10=2,19=2,28=1,96=20/1;
 99/9=1/99;
 Leave Link    1 at Mon May  4 18:48:15 2020, MaxMem=           0 cpu:               0.4 elap:               0.0
 (Enter /opt/gaussian/gdv-20191001-j04+/gdv/l101.exe)
 -----
 title
 -----
 Symbolic Z-matrix:
 Charge =  0 Multiplicity = 1
 C                     0.40334   0.068    -1.70778 
 H                     0.33994  -0.39946  -2.66818 
 H                     1.17248   0.78556  -1.51177 
 C                    -0.49051  -0.24877  -0.73966 
 H                    -1.25966  -0.96633  -0.93568 
 C                    -0.39926   0.42403   0.64259 
 H                    -1.37736   0.49314   1.07089 
 O                     0.44146  -0.35526   1.49746 
 H                     0.49835   0.06414   2.35913 
 H                     0.01317   1.40547   0.53503 
 
 ITRead=  0  0  0  0  0  0  0  0  0  0
 MicOpt= -1 -1 -1 -1 -1 -1 -1 -1 -1 -1
 NAtoms=     10 NQM=       10 NQMF=       0 NMMI=      0 NMMIF=      0
                NMic=       0 NMicF=      0.
                    Isotopes and Nuclear Properties:
 (Nuclear quadrupole moments (NQMom) in fm**2, nuclear magnetic moments (NMagM)
  in nuclear magnetons)

  Atom         1           2           3           4           5           6           7           8           9          10
 IAtWgt=          12           1           1          12           1          12           1          16           1           1
 AtmWgt=  12.0000000   1.0078250   1.0078250  12.0000000   1.0078250  12.0000000   1.0078250  15.9949146   1.0078250   1.0078250
 NucSpn=           0           1           1           0           1           0           1           0           1           1
 AtZEff=  -0.0000000  -0.0000000  -0.0000000  -0.0000000  -0.0000000  -0.0000000  -0.0000000  -0.0000000  -0.0000000  -0.0000000
 NQMom=    0.0000000   0.0000000   0.0000000   0.0000000   0.0000000   0.0000000   0.0000000   0.0000000   0.0000000   0.0000000
 NMagM=    0.0000000   2.7928460   2.7928460   0.0000000   2.7928460   0.0000000   2.7928460   0.0000000   2.7928460   2.7928460
 AtZNuc=   6.0000000   1.0000000   1.0000000   6.0000000   1.0000000   6.0000000   1.0000000   8.0000000   1.0000000   1.0000000
 Leave Link  101 at Mon May  4 18:48:16 2020, MaxMem=  4294967296 cpu:               5.1 elap:               0.5
 (Enter /opt/gaussian/gdv-20191001-j04+/gdv/l103.exe)

 GradGradGradGradGradGradGradGradGradGradGradGradGradGradGradGradGradGrad
 Berny optimization.
 Initialization pass.
                           ----------------------------
                           !    Initial Parameters    !
                           ! (Angstroms and Degrees)  !
 --------------------------                            --------------------------
 ! Name  Definition              Value          Derivative Info.                !
 --------------------------------------------------------------------------------
 ! R1    R(1,2)                  1.07           estimate D2E/DX2                !
 ! R2    R(1,3)                  1.07           estimate D2E/DX2                !
 ! R3    R(1,4)                  1.3552         estimate D2E/DX2                !
 ! R4    R(4,5)                  1.07           estimate D2E/DX2                !
 ! R5    R(4,6)                  1.54           estimate D2E/DX2                !
 ! R6    R(6,7)                  1.07           estimate D2E/DX2                !
 ! R7    R(6,8)                  1.43           estimate D2E/DX2                !
 ! R8    R(6,10)                 1.07           estimate D2E/DX2                !
 ! R9    R(8,9)                  0.96           estimate D2E/DX2                !
 ! A1    A(2,1,3)              120.0            estimate D2E/DX2                !
 ! A2    A(2,1,4)              120.0            estimate D2E/DX2                !
 ! A3    A(3,1,4)              120.0            estimate D2E/DX2                !
 ! A4    A(1,4,5)              120.0            estimate D2E/DX2                !
 ! A5    A(1,4,6)              120.0            estimate D2E/DX2                !
 ! A6    A(5,4,6)              120.0            estimate D2E/DX2                !
 ! A7    A(4,6,7)              109.4712         estimate D2E/DX2                !
 ! A8    A(4,6,8)              109.4712         estimate D2E/DX2                !
 ! A9    A(4,6,10)             109.4712         estimate D2E/DX2                !
 ! A10   A(7,6,8)              109.4712         estimate D2E/DX2                !
 ! A11   A(7,6,10)             109.4712         estimate D2E/DX2                !
 ! A12   A(8,6,10)             109.4712         estimate D2E/DX2                !
 ! A13   A(6,8,9)              109.4712         estimate D2E/DX2                !
 ! D1    D(2,1,4,5)             -0.0001         estimate D2E/DX2                !
 ! D2    D(2,1,4,6)            179.9999         estimate D2E/DX2                !
 ! D3    D(3,1,4,5)           -179.9999         estimate D2E/DX2                !
 ! D4    D(3,1,4,6)              0.0001         estimate D2E/DX2                !
 ! D5    D(1,4,6,7)            150.0            estimate D2E/DX2                !
 ! D6    D(1,4,6,8)            -90.0            estimate D2E/DX2                !
 ! D7    D(1,4,6,10)            30.0            estimate D2E/DX2                !
 ! D8    D(5,4,6,7)            -30.0            estimate D2E/DX2                !
 ! D9    D(5,4,6,8)             90.0            estimate D2E/DX2                !
 ! D10   D(5,4,6,10)          -150.0            estimate D2E/DX2                !
 ! D11   D(4,6,8,9)            180.0            estimate D2E/DX2                !
 ! D12   D(7,6,8,9)            -60.0            estimate D2E/DX2                !
 ! D13   D(10,6,8,9)            60.0            estimate D2E/DX2                !
 --------------------------------------------------------------------------------
 Trust Radius=3.00D-01 FncErr=1.00D-07 GrdErr=1.00D-07 EigMax=2.50D+02 EigMin=1.00D-04
 Number of steps in this run=     45 maximum allowed number of steps=    100.
 GradGradGradGradGradGradGradGradGradGradGradGradGradGradGradGradGradGrad

 Leave Link  103 at Mon May  4 18:48:16 2020, MaxMem=  4294967296 cpu:               0.1 elap:               0.0
 (Enter /opt/gaussian/gdv-20191001-j04+/gdv/l202.exe)
                          Input orientation:                          
 ---------------------------------------------------------------------
 Center     Atomic      Atomic             Coordinates (Angstroms)
 Number     Number       Type             X           Y           Z
 ---------------------------------------------------------------------
      1          6           0        0.403338    0.068000   -1.707782
      2          1           0        0.339936   -0.399461   -2.668178
      3          1           0        1.172483    0.785561   -1.511766
      4          6           0       -0.490513   -0.248766   -0.739662
      5          1           0       -1.259657   -0.966328   -0.935678
      6          6           0       -0.399260    0.424026    0.642592
      7          1           0       -1.377361    0.493145    1.070891
      8          8           0        0.441461   -0.355261    1.497461
      9          1           0        0.498346    0.064142    2.359125
     10          1           0        0.013174    1.405468    0.535031
 ---------------------------------------------------------------------
                    Distance matrix (angstroms):
                    1          2          3          4          5
     1  C    0.000000
     2  H    1.070000   0.000000
     3  H    1.070000   1.853294   0.000000
     4  C    1.355200   2.105120   2.105120   0.000000
     5  H    2.105120   2.425200   3.052261   1.070000   0.000000
     6  C    2.509019   3.490808   2.691159   1.540000   2.272510
     7  H    3.327561   4.210285   3.641061   2.148263   2.483995
     8  O    3.233294   4.167111   3.300199   2.425826   3.031067
     9  H    4.068019   5.051119   3.994835   3.267757   3.874038
    10  H    2.640315   3.691219   2.432624   2.148263   3.067328
                    6          7          8          9         10
     6  C    0.000000
     7  H    1.070000   0.000000
     8  O    1.430000   2.051796   0.000000
     9  H    1.970203   2.315570   0.960000   0.000000
    10  H    1.070000   1.747303   2.051796   2.315570   0.000000
 Stoichiometry    C3H6O
 Framework group  C1[X(C3H6O)]
 Deg. of freedom    24
 Full point group                 C1      NOp   1
 Largest Abelian subgroup         C1      NOp   1
 Largest concise Abelian subgroup C1      NOp   1
                         Standard orientation:                         
 ---------------------------------------------------------------------
 Center     Atomic      Atomic             Coordinates (Angstroms)
 Number     Number       Type             X           Y           Z
 ---------------------------------------------------------------------
      1          6           0        1.707782   -0.403338    0.068000
      2          1           0        2.668178   -0.339936   -0.399461
      3          1           0        1.511766   -1.172483    0.785561
      4          6           0        0.739662    0.490513   -0.248766
      5          1           0        0.935678    1.259656   -0.966328
      6          6           0       -0.642592    0.399260    0.424026
      7          1           0       -1.070891    1.377361    0.493145
      8          8           0       -1.497461   -0.441461   -0.355261
      9          1           0       -2.359125   -0.498346    0.064142
     10          1           0       -0.535031   -0.013174    1.405468
 ---------------------------------------------------------------------
 Rotational constants (GHZ):          21.1076223           4.6596392           4.3862991
 Leave Link  202 at Mon May  4 18:48:16 2020, MaxMem=  4294967296 cpu:               0.1 elap:               0.0
 (Enter /opt/gaussian/gdv-20191001-j04+/gdv/l301.exe)
 Standard basis: def2TZVP (5D, 7F)
 Ernie: Thresh=  0.10000D-02 Tol=  0.10000D-05 Strict=F.
 There are   180 symmetry adapted cartesian basis functions of A   symmetry.
 There are   160 symmetry adapted basis functions of A   symmetry.
   160 basis functions,   252 primitive gaussians,   180 cartesian basis functions
    16 alpha electrons       16 beta electrons
       nuclear repulsion energy       116.4941530335 Hartrees.
 IExCor=  402 DFT=T Ex+Corr=B3LYP ScaHFX=  0.200000
 ScaDFX=  0.800000  0.720000  1.000000  0.810000  1.000000  0.000000
 ScaDFX=  0.000000  0.000000  0.000000  0.000000  0.000000  0.000000
 IRadAn=      7 IRanWt=     -1 IRanGd=            0 ICorTp=0 IEmpDi=  4
 NAtoms=   10 NActive=   10 NUniq=   10 SFac= 1.00D+00 NAtFMM=   60 NAOKFM=F Big=F
 Integral buffers will be    131072 words long.
 Raffenetti 2 integral format.
 Two-electron integral symmetry is turned on.
 Leave Link  301 at Mon May  4 18:48:16 2020, MaxMem=  4294967296 cpu:               0.9 elap:               0.1
 (Enter /opt/gaussian/gdv-20191001-j04+/gdv/l302.exe)
 NPDir=0 NMtPBC=     1 NCelOv=     1 NCel=       1 NClECP=     1 NCelD=      1
         NCelK=      1 NCelE2=     1 NClLst=     1 CellRange=     0.0.
 One-electron integrals computed using PRISM.
 One-electron integral symmetry used in STVInt
   1 Symmetry operations used in ECPInt.
 ECPInt:  NShTT=    2346 NPrTT=    6892 LenC2=    2334 LenP2D=    5915.
 LDataN:  DoStor=T MaxTD1= 6 Len=  172
 NBasis=   160 RedAO= T EigKep=  2.23D-04  NBF=   160
 NBsUse=   160 1.00D-06 EigRej= -1.00D+00 NBFU=   160
 Precomputing XC quadrature grid using
 IXCGrd= 4 IRadAn=           7 IRanWt=          -1 IRanGd=           0 AccXCQ= 0.00D+00.
 Generated NRdTot=       0 NPtTot=           0 NUsed=           0 NTot=          32
 NSgBfM=   180   180   180   180   180 MxSgAt=    10 MxSgA2=    10 SizInc=   0.000.
 Leave Link  302 at Mon May  4 18:48:16 2020, MaxMem=  4294967296 cpu:               3.3 elap:               0.3
 (Enter /opt/gaussian/gdv-20191001-j04+/gdv/l303.exe)
 DipDrv:  MaxL=1.
 Leave Link  303 at Mon May  4 18:48:16 2020, MaxMem=  4294967296 cpu:               0.4 elap:               0.1
 (Enter /opt/gaussian/gdv-20191001-j04+/gdv/l401.exe)
 ExpMin= 9.52D-02 ExpMax= 2.70D+04 ExpMxC= 9.22D+02 IAcc=3 IRadAn=         7 AccDes= 0.00D+00
 Harris functional with IExCor=  402 and IRadAn=       7 diagonalized for initial guess.
 HarFok:  IExCor=  402 AccDes= 0.00D+00 IRadAn=         7 IDoV= 1 UseB2=F ITyADJ=14 ICtDFT=  3500011
 ScaDFX=  1.000000  1.000000  1.000000  1.000000  1.000000  1.000000
 ScaDFX=  1.000000  1.000000  1.000000  1.000000  1.000000  1.000000
 FoFCou: FMM=F IPFlag=           0 FMFlag=      100000 FMFlg1=           0
         NFxFlg=           0 DoJE=T BraDBF=F KetDBF=T FulRan=T
         wScrn=  0.000000 ICntrl=       500 IOpCl=  0 I1Cent=   200000004 NGrid=           0
         NMat0=    1 NMatS0=      1 NMatT0=    0 NMatD0=    1 NMtDS0=    0 NMtDT0=    0
 Petite list used in FoFCou.
 Harris En= -193.243342968526    
 JPrj=0 DoOrth=F DoCkMO=F.
 Initial guess <Sx>= 0.0000 <Sy>= 0.0000 <Sz>= 0.0000 <S**2>=-0.0000 S=-0.0000
 Leave Link  401 at Mon May  4 18:48:18 2020, MaxMem=  4294967296 cpu:              16.0 elap:               1.4
 (Enter /opt/gaussian/gdv-20191001-j04+/gdv/l502.exe)
 Keep R1 and R2 ints in memory in canonical form, NReq=178086546.
 FoFCou: FMM=F IPFlag=           0 FMFlag=           0 FMFlg1=           0
         NFxFlg=           0 DoJE=F BraDBF=F KetDBF=F FulRan=T
         wScrn=  0.000000 ICntrl=       600 IOpCl=  0 I1Cent=           0 NGrid=           0
         NMat0=    1 NMatS0=  12880 NMatT0=    0 NMatD0=    1 NMtDS0=    0 NMtDT0=    0
 Symmetry not used in FoFCou.
 Two-electron integral symmetry not used.
 UHF open shell SCF:
 Using DIIS extrapolation, IDIIS=  1040.
 NGot=  4294967296 LenX=  4128990976 LenY=  4128958135
 Requested convergence on RMS density matrix=1.00D-08 within 128 cycles.
 Requested convergence on MAX density matrix=1.00D-06.
 Requested convergence on             energy=1.00D-06.
 No special actions if energy rises.
 Integral accuracy reduced to 1.0D-05 until final iterations.

 Cycle   1  Pass 0  IDiag  1:
 E= -193.044644645161    
 DIIS: error= 2.51D-02 at cycle   1 NSaved=   1.
 NSaved= 1 IEnMin= 1 EnMin= -193.044644645161     IErMin= 1 ErrMin= 2.51D-02
 ErrMax= 2.51D-02  0.00D+00 EMaxC= 1.00D-01 BMatC= 6.75D-01 BMatP= 6.75D-01
 IDIUse=3 WtCom= 7.49D-01 WtEn= 2.51D-01
 Coeff-Com:  0.100D+01
 Coeff-En:   0.100D+01
 Coeff:      0.100D+01
 Gap=     0.249 Goal=   None    Shift=    0.000
 Gap=     0.249 Goal=   None    Shift=    0.000
 GapD=    0.249 DampG=1.000 DampE=0.500 DampFc=0.5000 IDamp=-1.
 Damping current iteration by 5.00D-01
 RMSDP=6.23D-03 MaxDP=1.20D-01              OVMax= 1.93D-01

 Cycle   2  Pass 0  IDiag  1:
 E= -193.102103582150     Delta-E=       -0.057458936989 Rises=F Damp=T
 DIIS: error= 7.70D-03 at cycle   2 NSaved=   2.
 NSaved= 2 IEnMin= 2 EnMin= -193.102103582150     IErMin= 2 ErrMin= 7.70D-03
 ErrMax= 7.70D-03  0.00D+00 EMaxC= 1.00D-01 BMatC= 4.82D-02 BMatP= 6.75D-01
 IDIUse=3 WtCom= 9.23D-01 WtEn= 7.70D-02
 Coeff-Com:  0.131D+00 0.869D+00
 Coeff-En:   0.219D+00 0.781D+00
 Coeff:      0.137D+00 0.863D+00
 Gap=     0.299 Goal=   None    Shift=    0.000
 Gap=     0.299 Goal=   None    Shift=    0.000
 RMSDP=1.65D-03 MaxDP=4.30D-02 DE=-5.75D-02 OVMax= 1.14D-01

 Cycle   3  Pass 0  IDiag  1:
 E= -193.189494652410     Delta-E=       -0.087391070260 Rises=F Damp=F
 DIIS: error= 5.83D-03 at cycle   3 NSaved=   3.
 NSaved= 3 IEnMin= 3 EnMin= -193.189494652410     IErMin= 3 ErrMin= 5.83D-03
 ErrMax= 5.83D-03  0.00D+00 EMaxC= 1.00D-01 BMatC= 2.36D-02 BMatP= 4.82D-02
 IDIUse=3 WtCom= 9.42D-01 WtEn= 5.83D-02
 Coeff-Com:  0.110D-01 0.402D+00 0.587D+00
 Coeff-En:   0.000D+00 0.000D+00 0.100D+01
 Coeff:      0.104D-01 0.379D+00 0.611D+00
 Gap=     0.257 Goal=   None    Shift=    0.000
 Gap=     0.257 Goal=   None    Shift=    0.000
 RMSDP=5.12D-04 MaxDP=9.82D-03 DE=-8.74D-02 OVMax= 1.86D-02

 Cycle   4  Pass 0  IDiag  1:
 E= -193.192901099358     Delta-E=       -0.003406446948 Rises=F Damp=F
 DIIS: error= 2.03D-03 at cycle   4 NSaved=   4.
 NSaved= 4 IEnMin= 4 EnMin= -193.192901099358     IErMin= 4 ErrMin= 2.03D-03
 ErrMax= 2.03D-03  0.00D+00 EMaxC= 1.00D-01 BMatC= 4.47D-03 BMatP= 2.36D-02
 IDIUse=3 WtCom= 9.80D-01 WtEn= 2.03D-02
 Coeff-Com: -0.113D-01 0.863D-01 0.333D+00 0.592D+00
 Coeff-En:   0.000D+00 0.000D+00 0.168D+00 0.832D+00
 Coeff:     -0.111D-01 0.846D-01 0.330D+00 0.597D+00
 Gap=     0.260 Goal=   None    Shift=    0.000
 Gap=     0.260 Goal=   None    Shift=    0.000
 RMSDP=1.62D-04 MaxDP=2.94D-03 DE=-3.41D-03 OVMax= 8.67D-03

 Cycle   5  Pass 0  IDiag  1:
 E= -193.193818044149     Delta-E=       -0.000916944791 Rises=F Damp=F
 DIIS: error= 3.24D-04 at cycle   5 NSaved=   5.
 NSaved= 5 IEnMin= 5 EnMin= -193.193818044149     IErMin= 5 ErrMin= 3.24D-04
 ErrMax= 3.24D-04  0.00D+00 EMaxC= 1.00D-01 BMatC= 8.19D-05 BMatP= 4.47D-03
 IDIUse=3 WtCom= 9.97D-01 WtEn= 3.24D-03
 Coeff-Com: -0.434D-02 0.117D-01 0.897D-01 0.214D+00 0.689D+00
 Coeff-En:   0.000D+00 0.000D+00 0.000D+00 0.000D+00 0.100D+01
 Coeff:     -0.433D-02 0.117D-01 0.894D-01 0.213D+00 0.690D+00
 Gap=     0.254 Goal=   None    Shift=    0.000
 Gap=     0.254 Goal=   None    Shift=    0.000
 RMSDP=2.82D-05 MaxDP=5.47D-04 DE=-9.17D-04 OVMax= 3.21D-03

 Cycle   6  Pass 0  IDiag  1:
 E= -193.193829846561     Delta-E=       -0.000011802412 Rises=F Damp=F
 DIIS: error= 1.79D-04 at cycle   6 NSaved=   6.
 NSaved= 6 IEnMin= 6 EnMin= -193.193829846561     IErMin= 6 ErrMin= 1.79D-04
 ErrMax= 1.79D-04  0.00D+00 EMaxC= 1.00D-01 BMatC= 2.80D-05 BMatP= 8.19D-05
 IDIUse=3 WtCom= 9.98D-01 WtEn= 1.79D-03
 Coeff-Com: -0.222D-02 0.373D-02 0.423D-01 0.110D+00 0.442D+00 0.405D+00
 Coeff-En:   0.000D+00 0.000D+00 0.000D+00 0.000D+00 0.262D+00 0.738D+00
 Coeff:     -0.222D-02 0.373D-02 0.423D-01 0.109D+00 0.442D+00 0.405D+00
 Gap=     0.254 Goal=   None    Shift=    0.000
 Gap=     0.254 Goal=   None    Shift=    0.000
 RMSDP=1.13D-05 MaxDP=3.01D-04 DE=-1.18D-05 OVMax= 1.64D-03

 Cycle   7  Pass 0  IDiag  1:
 E= -193.193837022020     Delta-E=       -0.000007175459 Rises=F Damp=F
 DIIS: error= 3.14D-05 at cycle   7 NSaved=   7.
 NSaved= 7 IEnMin= 7 EnMin= -193.193837022020     IErMin= 7 ErrMin= 3.14D-05
 ErrMax= 3.14D-05  0.00D+00 EMaxC= 1.00D-01 BMatC= 7.16D-07 BMatP= 2.80D-05
 IDIUse=1 WtCom= 1.00D+00 WtEn= 0.00D+00
 Coeff-Com: -0.299D-03-0.235D-03 0.599D-02 0.189D-01 0.102D+00 0.173D+00
 Coeff-Com:  0.700D+00
 Coeff:     -0.299D-03-0.235D-03 0.599D-02 0.189D-01 0.102D+00 0.173D+00
 Coeff:      0.700D+00
 Gap=     0.254 Goal=   None    Shift=    0.000
 Gap=     0.254 Goal=   None    Shift=    0.000
 RMSDP=2.17D-06 MaxDP=4.18D-05 DE=-7.18D-06 OVMax= 1.88D-04

 Initial convergence to 1.0D-05 achieved.  Increase integral accuracy.
 Cycle   8  Pass 1  IDiag  1:
 E= -193.193837275740     Delta-E=       -0.000000253721 Rises=F Damp=F
 DIIS: error= 4.65D-06 at cycle   1 NSaved=   1.
 NSaved= 1 IEnMin= 1 EnMin= -193.193837275740     IErMin= 1 ErrMin= 4.65D-06
 ErrMax= 4.65D-06  0.00D+00 EMaxC= 1.00D-01 BMatC= 1.36D-08 BMatP= 1.36D-08
 IDIUse=1 WtCom= 1.00D+00 WtEn= 0.00D+00
 Coeff-Com:  0.100D+01
 Coeff:      0.100D+01
 Gap=     0.254 Goal=   None    Shift=    0.000
 Gap=     0.254 Goal=   None    Shift=    0.000
 RMSDP=2.17D-06 MaxDP=4.18D-05 DE=-2.54D-07 OVMax= 2.52D-05

 Cycle   9  Pass 1  IDiag  1:
 E= -193.193837276402     Delta-E=       -0.000000000662 Rises=F Damp=F
 DIIS: error= 3.65D-06 at cycle   2 NSaved=   2.
 NSaved= 2 IEnMin= 2 EnMin= -193.193837276402     IErMin= 2 ErrMin= 3.65D-06
 ErrMax= 3.65D-06  0.00D+00 EMaxC= 1.00D-01 BMatC= 1.15D-08 BMatP= 1.36D-08
 IDIUse=1 WtCom= 1.00D+00 WtEn= 0.00D+00
 Coeff-Com:  0.477D+00 0.523D+00
 Coeff:      0.477D+00 0.523D+00
 Gap=     0.254 Goal=   None    Shift=    0.000
 Gap=     0.254 Goal=   None    Shift=    0.000
 RMSDP=3.31D-07 MaxDP=6.48D-06 DE=-6.62D-10 OVMax= 1.28D-05

 Cycle  10  Pass 1  IDiag  1:
 E= -193.193837279130     Delta-E=       -0.000000002728 Rises=F Damp=F
 DIIS: error= 5.74D-07 at cycle   3 NSaved=   3.
 NSaved= 3 IEnMin= 3 EnMin= -193.193837279130     IErMin= 3 ErrMin= 5.74D-07
 ErrMax= 5.74D-07  0.00D+00 EMaxC= 1.00D-01 BMatC= 3.50D-10 BMatP= 1.15D-08
 IDIUse=1 WtCom= 1.00D+00 WtEn= 0.00D+00
 Coeff-Com:  0.181D+00 0.237D+00 0.583D+00
 Coeff:      0.181D+00 0.237D+00 0.583D+00
 Gap=     0.254 Goal=   None    Shift=    0.000
 Gap=     0.254 Goal=   None    Shift=    0.000
 RMSDP=5.68D-08 MaxDP=9.73D-07 DE=-2.73D-09 OVMax= 2.31D-06

 Cycle  11  Pass 1  IDiag  1:
 E= -193.193837279204     Delta-E=       -0.000000000074 Rises=F Damp=F
 DIIS: error= 1.30D-07 at cycle   4 NSaved=   4.
 NSaved= 4 IEnMin= 4 EnMin= -193.193837279204     IErMin= 4 ErrMin= 1.30D-07
 ErrMax= 1.30D-07  0.00D+00 EMaxC= 1.00D-01 BMatC= 1.52D-11 BMatP= 3.50D-10
 IDIUse=1 WtCom= 1.00D+00 WtEn= 0.00D+00
 Coeff-Com:  0.544D-01 0.761D-01 0.245D+00 0.624D+00
 Coeff:      0.544D-01 0.761D-01 0.245D+00 0.624D+00
 Gap=     0.254 Goal=   None    Shift=    0.000
 Gap=     0.254 Goal=   None    Shift=    0.000
 RMSDP=1.22D-08 MaxDP=2.51D-07 DE=-7.41D-11 OVMax= 1.43D-06

 Cycle  12  Pass 1  IDiag  1:
 E= -193.193837279206     Delta-E=       -0.000000000002 Rises=F Damp=F
 DIIS: error= 8.26D-08 at cycle   5 NSaved=   5.
 NSaved= 5 IEnMin= 5 EnMin= -193.193837279206     IErMin= 5 ErrMin= 8.26D-08
 ErrMax= 8.26D-08  0.00D+00 EMaxC= 1.00D-01 BMatC= 6.09D-12 BMatP= 1.52D-11
 IDIUse=1 WtCom= 1.00D+00 WtEn= 0.00D+00
 Coeff-Com:  0.504D-02 0.101D-01 0.632D-01 0.401D+00 0.521D+00
 Coeff:      0.504D-02 0.101D-01 0.632D-01 0.401D+00 0.521D+00
 Gap=     0.254 Goal=   None    Shift=    0.000
 Gap=     0.254 Goal=   None    Shift=    0.000
 RMSDP=6.83D-09 MaxDP=1.43D-07 DE=-2.44D-12 OVMax= 7.51D-07

 SCF Done:  E(UB3LYP) =  -193.193837279     A.U. after   12 cycles
            NFock= 12  Conv=0.68D-08     -V/T= 2.0049
 <Sx>= 0.0000 <Sy>= 0.0000 <Sz>= 0.0000 <S**2>=-0.0000 S=-0.0000
 <L.S>= 0.000000000000E+00
 KE= 1.922432663597D+02 PE=-6.841174596024D+02 EE= 1.821862029300D+02
 Annihilation of the first spin contaminant:
 S**2 before annihilation    -0.0000,   after     0.0000
 Leave Link  502 at Mon May  4 18:48:38 2020, MaxMem=  4294967296 cpu:             222.2 elap:              20.3
 (Enter /opt/gaussian/gdv-20191001-j04+/gdv/l601.exe)
 Copying SCF densities to generalized density rwf, IOpCl= 1 IROHF=0.

 **********************************************************************

            Population analysis using the SCF Density.

 **********************************************************************

 Orbital symmetries:
 Alpha Orbitals:
       Occupied  (A) (A) (A) (A) (A) (A) (A) (A) (A) (A) (A) (A)
                 (A) (A) (A) (A)
       Virtual   (A) (A) (A) (A) (A) (A) (A) (A) (A) (A) (A) (A)
                 (A) (A) (A) (A) (A) (A) (A) (A) (A) (A) (A) (A)
                 (A) (A) (A) (A) (A) (A) (A) (A) (A) (A) (A) (A)
                 (A) (A) (A) (A) (A) (A) (A) (A) (A) (A) (A) (A)
                 (A) (A) (A) (A) (A) (A) (A) (A) (A) (A) (A) (A)
                 (A) (A) (A) (A) (A) (A) (A) (A) (A) (A) (A) (A)
                 (A) (A) (A) (A) (A) (A) (A) (A) (A) (A) (A) (A)
                 (A) (A) (A) (A) (A) (A) (A) (A) (A) (A) (A) (A)
                 (A) (A) (A) (A) (A) (A) (A) (A) (A) (A) (A) (A)
                 (A) (A) (A) (A) (A) (A) (A) (A) (A) (A) (A) (A)
                 (A) (A) (A) (A) (A) (A) (A) (A) (A) (A) (A) (A)
                 (A) (A) (A) (A) (A) (A) (A) (A) (A) (A) (A) (A)
 Beta  Orbitals:
       Occupied  (A) (A) (A) (A) (A) (A) (A) (A) (A) (A) (A) (A)
                 (A) (A) (A) (A)
       Virtual   (A) (A) (A) (A) (A) (A) (A) (A) (A) (A) (A) (A)
                 (A) (A) (A) (A) (A) (A) (A) (A) (A) (A) (A) (A)
                 (A) (A) (A) (A) (A) (A) (A) (A) (A) (A) (A) (A)
                 (A) (A) (A) (A) (A) (A) (A) (A) (A) (A) (A) (A)
                 (A) (A) (A) (A) (A) (A) (A) (A) (A) (A) (A) (A)
                 (A) (A) (A) (A) (A) (A) (A) (A) (A) (A) (A) (A)
                 (A) (A) (A) (A) (A) (A) (A) (A) (A) (A) (A) (A)
                 (A) (A) (A) (A) (A) (A) (A) (A) (A) (A) (A) (A)
                 (A) (A) (A) (A) (A) (A) (A) (A) (A) (A) (A) (A)
                 (A) (A) (A) (A) (A) (A) (A) (A) (A) (A) (A) (A)
                 (A) (A) (A) (A) (A) (A) (A) (A) (A) (A) (A) (A)
                 (A) (A) (A) (A) (A) (A) (A) (A) (A) (A) (A) (A)
 The electronic state is 1-A.
 Alpha  occ. eigenvalues --  -19.12315 -10.21996 -10.18113 -10.17207  -1.01998
 Alpha  occ. eigenvalues --   -0.78183  -0.67938  -0.56649  -0.51669  -0.48610
 Alpha  occ. eigenvalues --   -0.44546  -0.40281  -0.38039  -0.33474  -0.28110
 Alpha  occ. eigenvalues --   -0.27185
 Alpha virt. eigenvalues --   -0.01782   0.03722   0.06889   0.07909   0.09165
 Alpha virt. eigenvalues --    0.11742   0.13119   0.15513   0.17840   0.20835
 Alpha virt. eigenvalues --    0.21960   0.23877   0.25805   0.28774   0.30607
 Alpha virt. eigenvalues --    0.32127   0.34091   0.35284   0.36210   0.41026
 Alpha virt. eigenvalues --    0.42367   0.43197   0.46633   0.47173   0.48681
 Alpha virt. eigenvalues --    0.51654   0.53180   0.55261   0.56966   0.58406
 Alpha virt. eigenvalues --    0.65183   0.68834   0.70656   0.77385   0.81096
 Alpha virt. eigenvalues --    0.84204   0.88368   0.92406   0.96094   0.99546
 Alpha virt. eigenvalues --    1.01277   1.07376   1.08482   1.14575   1.19680
 Alpha virt. eigenvalues --    1.22303   1.25047   1.33428   1.38509   1.44024
 Alpha virt. eigenvalues --    1.47577   1.51676   1.53247   1.55268   1.57393
 Alpha virt. eigenvalues --    1.60024   1.60784   1.64007   1.69886   1.74093
 Alpha virt. eigenvalues --    1.77661   1.80546   1.82791   1.87162   1.89427
 Alpha virt. eigenvalues --    1.93175   1.99135   2.03310   2.09648   2.15166
 Alpha virt. eigenvalues --    2.19926   2.21895   2.22897   2.29636   2.32354
 Alpha virt. eigenvalues --    2.33135   2.38829   2.40969   2.51760   2.54746
 Alpha virt. eigenvalues --    2.56304   2.56871   2.59518   2.64772   2.66313
 Alpha virt. eigenvalues --    2.69014   2.71110   2.80769   2.84816   2.87650
 Alpha virt. eigenvalues --    2.87900   2.91629   2.93795   2.99452   3.05256
 Alpha virt. eigenvalues --    3.07111   3.10372   3.13572   3.16788   3.19223
 Alpha virt. eigenvalues --    3.20703   3.24651   3.26856   3.29449   3.34875
 Alpha virt. eigenvalues --    3.38833   3.43670   3.44881   3.50933   3.53740
 Alpha virt. eigenvalues --    3.62685   3.64261   3.78749   3.82104   3.85258
 Alpha virt. eigenvalues --    3.89610   4.06863   4.08753   4.15019   4.22419
 Alpha virt. eigenvalues --    4.32355   4.46619   4.49573   4.56833   4.60874
 Alpha virt. eigenvalues --    4.66706   4.80679   5.00290   5.25729   5.34536
 Alpha virt. eigenvalues --    5.46629   5.71944   5.74934   5.86443   6.25878
 Alpha virt. eigenvalues --    6.44986   6.65499   6.71632   6.95179   7.13930
 Alpha virt. eigenvalues --   22.02992  22.38291  22.60548  43.72180
  Beta  occ. eigenvalues --  -19.12315 -10.21996 -10.18113 -10.17207  -1.01998
  Beta  occ. eigenvalues --   -0.78183  -0.67938  -0.56649  -0.51669  -0.48610
  Beta  occ. eigenvalues --   -0.44546  -0.40281  -0.38039  -0.33474  -0.28110
  Beta  occ. eigenvalues --   -0.27185
  Beta virt. eigenvalues --   -0.01782   0.03722   0.06889   0.07909   0.09165
  Beta virt. eigenvalues --    0.11742   0.13119   0.15513   0.17840   0.20835
  Beta virt. eigenvalues --    0.21960   0.23877   0.25805   0.28774   0.30607
  Beta virt. eigenvalues --    0.32127   0.34091   0.35284   0.36210   0.41026
  Beta virt. eigenvalues --    0.42367   0.43197   0.46633   0.47173   0.48681
  Beta virt. eigenvalues --    0.51654   0.53180   0.55261   0.56966   0.58406
  Beta virt. eigenvalues --    0.65183   0.68834   0.70656   0.77385   0.81096
  Beta virt. eigenvalues --    0.84204   0.88368   0.92406   0.96094   0.99546
  Beta virt. eigenvalues --    1.01277   1.07376   1.08482   1.14575   1.19680
  Beta virt. eigenvalues --    1.22303   1.25047   1.33428   1.38509   1.44024
  Beta virt. eigenvalues --    1.47577   1.51676   1.53247   1.55268   1.57393
  Beta virt. eigenvalues --    1.60024   1.60784   1.64007   1.69886   1.74093
  Beta virt. eigenvalues --    1.77661   1.80546   1.82791   1.87162   1.89427
  Beta virt. eigenvalues --    1.93175   1.99135   2.03310   2.09648   2.15166
  Beta virt. eigenvalues --    2.19926   2.21895   2.22897   2.29636   2.32354
  Beta virt. eigenvalues --    2.33135   2.38829   2.40969   2.51760   2.54746
  Beta virt. eigenvalues --    2.56304   2.56871   2.59518   2.64772   2.66313
  Beta virt. eigenvalues --    2.69014   2.71110   2.80769   2.84816   2.87650
  Beta virt. eigenvalues --    2.87900   2.91629   2.93795   2.99452   3.05256
  Beta virt. eigenvalues --    3.07111   3.10372   3.13572   3.16788   3.19223
  Beta virt. eigenvalues --    3.20703   3.24651   3.26856   3.29449   3.34875
  Beta virt. eigenvalues --    3.38833   3.43670   3.44881   3.50933   3.53740
  Beta virt. eigenvalues --    3.62685   3.64261   3.78749   3.82104   3.85258
  Beta virt. eigenvalues --    3.89610   4.06863   4.08753   4.15019   4.22419
  Beta virt. eigenvalues --    4.32355   4.46619   4.49573   4.56833   4.60874
  Beta virt. eigenvalues --    4.66706   4.80679   5.00290   5.25729   5.34536
  Beta virt. eigenvalues --    5.46629   5.71944   5.74934   5.86443   6.25878
  Beta virt. eigenvalues --    6.44986   6.65499   6.71632   6.95179   7.13930
  Beta virt. eigenvalues --   22.02992  22.38291  22.60548  43.72180
          Condensed to atoms (all electrons):
               1          2          3          4          5          6
     1  C    4.963340   0.406760   0.410010   0.550276  -0.058379  -0.023945
     2  H    0.406760   0.546871  -0.030285  -0.038154  -0.005884   0.006559
     3  H    0.410010  -0.030285   0.548105  -0.039765   0.006530  -0.010672
     4  C    0.550276  -0.038154  -0.039765   5.048792   0.413959   0.296184
     5  H   -0.058379  -0.005884   0.006530   0.413959   0.571995  -0.040877
     6  C   -0.023945   0.006559  -0.010672   0.296184  -0.040877   4.672132
     7  H    0.016108  -0.000662   0.000088  -0.051859  -0.014516   0.428736
     8  O    0.010820  -0.000518  -0.000525  -0.092329   0.004675   0.322164
     9  H   -0.000139   0.000058  -0.000077   0.015718  -0.000297  -0.034211
    10  H   -0.028242   0.000541   0.003869  -0.020830   0.009781   0.408740
               7          8          9         10
     1  C    0.016108   0.010820  -0.000139  -0.028242
     2  H   -0.000662  -0.000518   0.000058   0.000541
     3  H    0.000088  -0.000525  -0.000077   0.003869
     4  C   -0.051859  -0.092329   0.015718  -0.020830
     5  H   -0.014516   0.004675  -0.000297   0.009781
     6  C    0.428736   0.322164  -0.034211   0.408740
     7  H    0.675768  -0.055881  -0.005990  -0.075441
     8  O   -0.055881   8.044469   0.277590  -0.061120
     9  H   -0.005990   0.277590   0.461102  -0.006215
    10  H   -0.075441  -0.061120  -0.006215   0.682722
          Atomic-Atomic Spin Densities.
               1          2          3          4          5          6
     1  C    0.000000   0.000000   0.000000   0.000000   0.000000   0.000000
     2  H    0.000000   0.000000  -0.000000  -0.000000   0.000000  -0.000000
     3  H    0.000000  -0.000000  -0.000000  -0.000000  -0.000000   0.000000
     4  C    0.000000  -0.000000  -0.000000  -0.000000  -0.000000  -0.000000
     5  H    0.000000   0.000000  -0.000000  -0.000000  -0.000000  -0.000000
     6  C    0.000000  -0.000000   0.000000  -0.000000  -0.000000   0.000000
     7  H   -0.000000  -0.000000  -0.000000  -0.000000   0.000000   0.000000
     8  O   -0.000000   0.000000  -0.000000   0.000000   0.000000   0.000000
     9  H    0.000000   0.000000  -0.000000  -0.000000  -0.000000   0.000000
    10  H    0.000000  -0.000000  -0.000000  -0.000000   0.000000  -0.000000
               7          8          9         10
     1  C   -0.000000  -0.000000   0.000000   0.000000
     2  H   -0.000000   0.000000   0.000000  -0.000000
     3  H   -0.000000  -0.000000  -0.000000  -0.000000
     4  C   -0.000000   0.000000  -0.000000  -0.000000
     5  H    0.000000   0.000000  -0.000000   0.000000
     6  C    0.000000   0.000000   0.000000  -0.000000
     7  H    0.000000   0.000000  -0.000000   0.000000
     8  O    0.000000  -0.000000  -0.000000   0.000000
     9  H   -0.000000  -0.000000   0.000000  -0.000000
    10  H    0.000000   0.000000  -0.000000  -0.000000
 Mulliken charges and spin densities:
               1          2
     1  C   -0.246609   0.000000
     2  H    0.114714   0.000000
     3  H    0.112722  -0.000000
     4  C   -0.081992  -0.000000
     5  H    0.113014   0.000000
     6  C   -0.024809  -0.000000
     7  H    0.083648   0.000000
     8  O   -0.449344   0.000000
     9  H    0.292462   0.000000
    10  H    0.086194  -0.000000
 Sum of Mulliken charges =  -0.00000   0.00000
 Mulliken charges and spin densities with hydrogens summed into heavy atoms:
               1          2
     1  C   -0.019172   0.000000
     4  C    0.031022  -0.000000
     6  C    0.145033  -0.000000
     8  O   -0.156883   0.000000
 Electronic spatial extent (au):  <R**2>=            322.0495
 Charge=             -0.0000 electrons
 Dipole moment (field-independent basis, Debye):
    X=             -0.4605    Y=              0.7038    Z=              1.3355  Tot=              1.5782
 Quadrupole moment (field-independent basis, Debye-Ang):
   XX=            -20.8333   YY=            -25.5172   ZZ=            -26.3099
   XY=             -0.7644   XZ=             -3.0896   YZ=             -2.0337
 Traceless Quadrupole moment (field-independent basis, Debye-Ang):
   XX=              3.3869   YY=             -1.2971   ZZ=             -2.0898
   XY=             -0.7644   XZ=             -3.0896   YZ=             -2.0337
 Octapole moment (field-independent basis, Debye-Ang**2):
  XXX=            -19.1041  YYY=             -0.2587  ZZZ=              0.1407  XYY=             -2.8192
  XXY=             -4.0250  XXZ=              1.0743  XZZ=             -1.9867  YZZ=             -0.2849
  YYZ=             -0.0501  XYZ=             -0.9338
 Hexadecapole moment (field-independent basis, Debye-Ang**3):
 XXXX=           -240.2369 YYYY=            -73.7264 ZZZZ=            -58.0395 XXXY=              8.0510
 XXXZ=            -12.2270 YYYX=              1.4276 YYYZ=             -2.9405 ZZZX=             -0.5027
 ZZZY=             -2.5827 XXYY=            -60.8602 XXZZ=            -61.2807 YYZZ=            -21.0592
 XXYZ=             -3.2565 YYXZ=             -0.2676 ZZXY=              1.1330
 N-N= 1.164941530335D+02 E-N=-6.841174632923D+02  KE= 1.922432663597D+02

 Atomic contributions to Alpha molecular orbitals:
 Alpha occ 1 OE=-19.123 is O8-s=0.9995
 Alpha occ 2 OE=-10.220 is C6-s=1.0034
 Alpha occ 3 OE=-10.181 is C4-s=1.0036
 Alpha occ 4 OE=-10.172 is C1-s=1.0049
 Alpha occ 5 OE=-1.020 is O8-s=0.7338
 Alpha occ 6 OE=-0.782 is C4-s=0.3716 C1-s=0.2725 C6-s=0.1162
 Alpha occ 7 OE=-0.679 is C6-s=0.3225 C1-s=0.2184
 Alpha occ 8 OE=-0.566 is C4-s=0.2134 H5-s=0.1461 C1-s=0.1222
 Alpha occ 9 OE=-0.517 is O8-p=0.4370 C6-p=0.2343 H9-s=0.1459
 Alpha occ 10 OE=-0.486 is C6-p=0.2327 C1-p=0.2145 H2-s=0.1319 C4-p=0.1311
 Alpha occ 11 OE=-0.445 is C6-p=0.2564 C1-p=0.2086 O8-p=0.1279 H3-s=0.1211 C4-p=0.1189
 Alpha occ 12 OE=-0.403 is C4-p=0.2281 C1-p=0.2177 C6-p=0.1525 O8-p=0.1496
 Alpha occ 13 OE=-0.380 is O8-p=0.2577 C1-p=0.1597 H3-s=0.1199 H5-s=0.1124 C4-p=0.1122
 Alpha occ 14 OE=-0.335 is O8-p=0.3310 C6-p=0.1669 C4-p=0.1422
 Alpha occ 15 OE=-0.281 is O8-p=0.6809
 Alpha occ 16 OE=-0.272 is C1-p=0.4313 C4-p=0.4170
 Alpha vir 17 OE=-0.018 is C1-p=0.4167 C4-p=0.3442 H9-s=0.1173
 Alpha vir 18 OE=0.037 is C6-s=-0.8779 H9-s=0.7451 H7-s=0.4307 H10-s=0.3189 C4-p=0.1360
 Alpha vir 19 OE=0.069 is H5-s=0.8436 H2-s=0.3986 C4-p=-0.2779 C1-s=-0.2470 H7-s=0.2172 H9-s=0.1403 C4-s=-0.1064 C6-s=-0.1020
 Alpha vir 20 OE=0.079 is H3-s=0.7756 H10-s=0.6097 C1-s=-0.2545 H5-s=0.1885 C1-p=-0.1862 C6-p=-0.1703 C6-s=-0.1399
 Alpha vir 21 OE=0.092 is H7-s=0.6648 H2-s=0.5486 C6-s=-0.5018 C4-p=0.3738 C1-s=-0.3068 H10-s=0.2048 H3-s=0.1245
 Alpha vir 22 OE=0.117 is H2-s=0.7069 H5-s=0.3797 C6-p=0.3112 C1-p=-0.2548 H3-s=0.1238 C1-s=-0.1158
 Alpha vir 23 OE=0.131 is H10-s=0.4224 H7-s=0.3888 H3-s=0.3069 C6-p=-0.2044 C4-s=-0.1305
 Alpha vir 24 OE=0.155 is C6-p=0.7178 H5-s=0.1104 C4-s=0.1046
 Alpha vir 25 OE=0.178 is C1-p=0.5579 C4-p=-0.4989 C6-p=0.4594 H5-s=0.4063 H3-s=0.2160 C1-s=-0.1118
 Alpha vir 26 OE=0.208 is C6-p=0.7953 C1-p=0.3602 C1-s=0.2311 H3-s=-0.2088
 Alpha vir 27 OE=0.220 is C1-s=1.4751 C1-p=0.3672 C4-p=-0.3234 H5-s=-0.2438 H2-s=-0.1477 C6-s=0.1297
 Alpha vir 28 OE=0.239 is C4-p=0.5303 C1-p=0.3820
 Alpha vir 29 OE=0.258 is C4-p=1.0406 C1-p=0.2381 C1-s=-0.2022 C6-p=-0.1005
 Alpha vir 30 OE=0.288 is C6-p=0.8478 C1-p=0.2542 C4-p=0.1177 H10-s=-0.1039 H7-s=-0.1025
 Alpha vir 31 OE=0.306 is C4-p=0.3727 C1-p=0.3649 C6-p=0.1431 H3-s=-0.1244
 Alpha vir 32 OE=0.321 is C6-p=0.5509 C4-p=0.1541 O8-p=0.1019
 Alpha vir 33 OE=0.341 is C1-s=0.7574 C4-s=0.7099 C1-p=-0.6859 C6-s=0.6331 C4-p=-0.6104 C6-p=0.2232 O8-s=-0.1216 C4-d=0.1036
 Alpha vir 34 OE=0.353 is C4-p=0.7076 C6-p=0.5207 H5-s=-0.2311 C1-p=0.1823 H7-s=-0.1348
 Alpha vir 35 OE=0.362 is C6-s=0.9580 C1-p=0.4153 H10-s=-0.3099 H7-s=-0.2427 C6-p=0.1670 C4-p=-0.1590 H9-s=0.1490 H2-s=-0.1139 C4-s=0.1037
 Alpha vir 36 OE=0.410 is C6-s=1.2940 H10-s=-0.2962 H7-s=-0.2383 O8-p=0.2321 C4-p=-0.2229 H9-s=0.1602 C4-s=0.1516 O8-s=-0.1001

 Atomic contributions to Beta  molecular orbitals:
 Beta  occ 1 OE=-19.123 is O8-s=0.9995
 Beta  occ 2 OE=-10.220 is C6-s=1.0034
 Beta  occ 3 OE=-10.181 is C4-s=1.0036
 Beta  occ 4 OE=-10.172 is C1-s=1.0049
 Beta  occ 5 OE=-1.020 is O8-s=0.7338
 Beta  occ 6 OE=-0.782 is C4-s=0.3716 C1-s=0.2725 C6-s=0.1162
 Beta  occ 7 OE=-0.679 is C6-s=0.3225 C1-s=0.2184
 Beta  occ 8 OE=-0.566 is C4-s=0.2134 H5-s=0.1461 C1-s=0.1222
 Beta  occ 9 OE=-0.517 is O8-p=0.4370 C6-p=0.2343 H9-s=0.1459
 Beta  occ 10 OE=-0.486 is C6-p=0.2327 C1-p=0.2145 H2-s=0.1319 C4-p=0.1311
 Beta  occ 11 OE=-0.445 is C6-p=0.2564 C1-p=0.2086 O8-p=0.1279 H3-s=0.1211 C4-p=0.1189
 Beta  occ 12 OE=-0.403 is C4-p=0.2281 C1-p=0.2177 C6-p=0.1525 O8-p=0.1496
 Beta  occ 13 OE=-0.380 is O8-p=0.2577 C1-p=0.1597 H3-s=0.1199 H5-s=0.1124 C4-p=0.1122
 Beta  occ 14 OE=-0.335 is O8-p=0.3310 C6-p=0.1669 C4-p=0.1422
 Beta  occ 15 OE=-0.281 is O8-p=0.6809
 Beta  occ 16 OE=-0.272 is C1-p=0.4313 C4-p=0.4170
 Beta  vir 17 OE=-0.018 is C1-p=0.4167 C4-p=0.3442 H9-s=0.1173
 Beta  vir 18 OE=0.037 is C6-s=-0.8779 H9-s=0.7451 H7-s=0.4307 H10-s=0.3189 C4-p=0.1360
 Beta  vir 19 OE=0.069 is H5-s=0.8436 H2-s=0.3986 C4-p=-0.2779 C1-s=-0.2470 H7-s=0.2172 H9-s=0.1403 C4-s=-0.1064 C6-s=-0.1020
 Beta  vir 20 OE=0.079 is H3-s=0.7756 H10-s=0.6097 C1-s=-0.2545 H5-s=0.1885 C1-p=-0.1862 C6-p=-0.1703 C6-s=-0.1399
 Beta  vir 21 OE=0.092 is H7-s=0.6648 H2-s=0.5486 C6-s=-0.5018 C4-p=0.3738 C1-s=-0.3068 H10-s=0.2048 H3-s=0.1245
 Beta  vir 22 OE=0.117 is H2-s=0.7069 H5-s=0.3797 C6-p=0.3112 C1-p=-0.2548 H3-s=0.1238 C1-s=-0.1158
 Beta  vir 23 OE=0.131 is H10-s=0.4224 H7-s=0.3888 H3-s=0.3069 C6-p=-0.2044 C4-s=-0.1305
 Beta  vir 24 OE=0.155 is C6-p=0.7178 H5-s=0.1104 C4-s=0.1046
 Beta  vir 25 OE=0.178 is C1-p=0.5579 C4-p=-0.4989 C6-p=0.4594 H5-s=0.4063 H3-s=0.2160 C1-s=-0.1118
 Beta  vir 26 OE=0.208 is C6-p=0.7953 C1-p=0.3602 C1-s=0.2311 H3-s=-0.2088
 Beta  vir 27 OE=0.220 is C1-s=1.4751 C1-p=0.3672 C4-p=-0.3234 H5-s=-0.2438 H2-s=-0.1477 C6-s=0.1297
 Beta  vir 28 OE=0.239 is C4-p=0.5303 C1-p=0.3820
 Beta  vir 29 OE=0.258 is C4-p=1.0406 C1-p=0.2381 C1-s=-0.2022 C6-p=-0.1005
 Beta  vir 30 OE=0.288 is C6-p=0.8478 C1-p=0.2542 C4-p=0.1177 H10-s=-0.1039 H7-s=-0.1025
 Beta  vir 31 OE=0.306 is C4-p=0.3727 C1-p=0.3649 C6-p=0.1431 H3-s=-0.1244
 Beta  vir 32 OE=0.321 is C6-p=0.5509 C4-p=0.1541 O8-p=0.1019
 Beta  vir 33 OE=0.341 is C1-s=0.7574 C4-s=0.7099 C1-p=-0.6859 C6-s=0.6331 C4-p=-0.6104 C6-p=0.2232 O8-s=-0.1216 C4-d=0.1036
 Beta  vir 34 OE=0.353 is C4-p=0.7076 C6-p=0.5207 H5-s=-0.2311 C1-p=0.1823 H7-s=-0.1348
 Beta  vir 35 OE=0.362 is C6-s=0.9580 C1-p=0.4153 H10-s=-0.3099 H7-s=-0.2427 C6-p=0.1670 C4-p=-0.1590 H9-s=0.1490 H2-s=-0.1139 C4-s=0.1037
 Beta  vir 36 OE=0.410 is C6-s=1.2940 H10-s=-0.2962 H7-s=-0.2383 O8-p=0.2321 C4-p=-0.2229 H9-s=0.1602 C4-s=0.1516 O8-s=-0.1001
 
                          Isotropic Fermi Contact Couplings
        Atom                 a.u.       MegaHertz       Gauss      10(-4) cm-1
     1  C(13)             -0.00000      -0.00000      -0.00000      -0.00000
     2  H(1)              -0.00000      -0.00000      -0.00000      -0.00000
     3  H(1)               0.00000       0.00000       0.00000       0.00000
     4  C(13)             -0.00000      -0.00000      -0.00000      -0.00000
     5  H(1)               0.00000       0.00000       0.00000       0.00000
     6  C(13)             -0.00000      -0.00000      -0.00000      -0.00000
     7  H(1)               0.00000       0.00000       0.00000       0.00000
     8  O(17)              0.00000      -0.00000      -0.00000      -0.00000
     9  H(1)               0.00000       0.00000       0.00000       0.00000
    10  H(1)              -0.00000      -0.00000      -0.00000      -0.00000
 --------------------------------------------------------
       Center         ----  Spin Dipole Couplings  ----
                      3XX-RR        3YY-RR        3ZZ-RR
 --------------------------------------------------------
     1   Atom        0.000000      0.000000      0.000000
     2   Atom        0.000000      0.000000      0.000000
     3   Atom        0.000000      0.000000      0.000000
     4   Atom        0.000000      0.000000      0.000000
     5   Atom        0.000000      0.000000      0.000000
     6   Atom        0.000000      0.000000      0.000000
     7   Atom        0.000000      0.000000      0.000000
     8   Atom        0.000000      0.000000      0.000000
     9   Atom        0.000000      0.000000      0.000000
    10   Atom        0.000000      0.000000      0.000000
 --------------------------------------------------------
                        XY            XZ            YZ
 --------------------------------------------------------
     1   Atom        0.000000      0.000000      0.000000
     2   Atom        0.000000      0.000000      0.000000
     3   Atom        0.000000      0.000000      0.000000
     4   Atom        0.000000      0.000000      0.000000
     5   Atom        0.000000      0.000000      0.000000
     6   Atom        0.000000      0.000000      0.000000
     7   Atom        0.000000      0.000000      0.000000
     8   Atom        0.000000      0.000000      0.000000
     9   Atom        0.000000      0.000000      0.000000
    10   Atom        0.000000      0.000000      0.000000
 --------------------------------------------------------


 ---------------------------------------------------------------------------------
              Anisotropic Spin Dipole Couplings in Principal Axis System
 ---------------------------------------------------------------------------------

       Atom             a.u.   MegaHertz   Gauss  10(-4) cm-1        Axes

              Baa     0.0000     0.000     0.000     0.000  1.0000  0.0000  0.0000
     1 C(13)  Bbb     0.0000     0.000     0.000     0.000 -0.0000  1.0000  0.0000
              Bcc     0.0000     0.000     0.000     0.000  0.0000  0.0000  1.0000
 
              Baa     0.0000     0.000     0.000     0.000  1.0000  0.0000  0.0000
     2 H(1)   Bbb     0.0000     0.000     0.000     0.000 -0.0000  1.0000  0.0000
              Bcc     0.0000     0.000     0.000     0.000  0.0000  0.0000  1.0000
 
              Baa     0.0000     0.000     0.000     0.000  1.0000  0.0000  0.0000
     3 H(1)   Bbb     0.0000     0.000     0.000     0.000 -0.0000  1.0000  0.0000
              Bcc     0.0000     0.000     0.000     0.000  0.0000  0.0000  1.0000
 
              Baa     0.0000     0.000     0.000     0.000  1.0000  0.0000  0.0000
     4 C(13)  Bbb     0.0000     0.000     0.000     0.000 -0.0000  1.0000  0.0000
              Bcc     0.0000     0.000     0.000     0.000  0.0000  0.0000  1.0000
 
              Baa     0.0000     0.000     0.000     0.000  1.0000  0.0000  0.0000
     5 H(1)   Bbb     0.0000     0.000     0.000     0.000 -0.0000  1.0000  0.0000
              Bcc     0.0000     0.000     0.000     0.000  0.0000  0.0000  1.0000
 
              Baa     0.0000     0.000     0.000     0.000  1.0000  0.0000  0.0000
     6 C(13)  Bbb     0.0000     0.000     0.000     0.000 -0.0000  1.0000  0.0000
              Bcc     0.0000     0.000     0.000     0.000  0.0000  0.0000  1.0000
 
              Baa     0.0000     0.000     0.000     0.000  1.0000  0.0000  0.0000
     7 H(1)   Bbb     0.0000     0.000     0.000     0.000 -0.0000  1.0000  0.0000
              Bcc     0.0000     0.000     0.000     0.000  0.0000  0.0000  1.0000
 
              Baa     0.0000    -0.000    -0.000    -0.000  1.0000  0.0000  0.0000
     8 O(17)  Bbb     0.0000    -0.000    -0.000    -0.000 -0.0000  1.0000  0.0000
              Bcc     0.0000    -0.000    -0.000    -0.000  0.0000  0.0000  1.0000
 
              Baa     0.0000     0.000     0.000     0.000  1.0000  0.0000  0.0000
     9 H(1)   Bbb     0.0000     0.000     0.000     0.000 -0.0000  1.0000  0.0000
              Bcc     0.0000     0.000     0.000     0.000  0.0000  0.0000  1.0000
 
              Baa     0.0000     0.000     0.000     0.000  1.0000  0.0000  0.0000
    10 H(1)   Bbb     0.0000     0.000     0.000     0.000 -0.0000  1.0000  0.0000
              Bcc     0.0000     0.000     0.000     0.000  0.0000  0.0000  1.0000
 

 ---------------------------------------------------------------------------------

 No NMR shielding tensors so no spin-rotation constants.
 Leave Link  601 at Mon May  4 18:48:38 2020, MaxMem=  4294967296 cpu:               2.9 elap:               0.3
 (Enter /opt/gaussian/gdv-20191001-j04+/gdv/l701.exe)
 ... and contract with generalized density number  0.
 Compute integral first derivatives.
   1 Symmetry operations used in ECPInt.
 ECPInt:  NShTT=    2346 NPrTT=    6892 LenC2=    2334 LenP2D=    5915.
 LDataN:  DoStor=T MaxTD1= 7 Len=  274
 Leave Link  701 at Mon May  4 18:48:39 2020, MaxMem=  4294967296 cpu:               3.1 elap:               0.3
 (Enter /opt/gaussian/gdv-20191001-j04+/gdv/l702.exe)
 L702 exits ... SP integral derivatives will be done elsewhere.
 Leave Link  702 at Mon May  4 18:48:39 2020, MaxMem=  4294967296 cpu:               0.2 elap:               0.0
 (Enter /opt/gaussian/gdv-20191001-j04+/gdv/l703.exe)
 Integral derivatives from FoFJK, PRISM(SPDF).
 Compute integral first derivatives, UseDBF=F ICtDFT=           0.
 Calling FoFJK, ICntrl=      2127 FMM=F ISym2X=0 I1Cent= 0 IOpClX= 1 NMat=1 NMatS=1 NMatT=0.
 FoFJK:  IHMeth= 1 ICntrl=    2127 DoSepK=F KAlg= 0 I1Cent=           0 FoldK=F
 IRaf=         0 NMat=       1 IRICut=       1 DoRegI=T DoRafI=F ISym2E= 0 IDoP0=0 IntGTp=1.
 FoFCou: FMM=F IPFlag=           0 FMFlag=      100000 FMFlg1=         800
         NFxFlg=           0 DoJE=F BraDBF=F KetDBF=F FulRan=T
         wScrn=  0.000000 ICntrl=      2127 IOpCl=  1 I1Cent=           0 NGrid=           0
         NMat0=    1 NMatS0=      1 NMatT0=    0 NMatD0=    1 NMtDS0=    0 NMtDT0=    0
 Symmetry not used in FoFCou.
 Leave Link  703 at Mon May  4 18:48:46 2020, MaxMem=  4294967296 cpu:              82.5 elap:               6.9
 (Enter /opt/gaussian/gdv-20191001-j04+/gdv/l716.exe)
 Dipole        =-1.81178769D-01 2.76881369D-01 5.25417580D-01
 ***** Axes restored to original set *****
 -------------------------------------------------------------------
 Center     Atomic                   Forces (Hartrees/Bohr)
 Number     Number              X              Y              Z
 -------------------------------------------------------------------
      1        6          -0.031516671   -0.012117336    0.028054954
      2        1           0.002895118   -0.002207517   -0.008736392
      3        1           0.007422514    0.005750308   -0.001551547
      4        6           0.034283013    0.026468130   -0.003453461
      5        1          -0.006833216   -0.006795638    0.001904090
      6        6           0.004366254   -0.024859165   -0.016313006
      7        1          -0.016203185    0.003229275    0.005734372
      8        8           0.002324429   -0.007525338   -0.004053926
      9        1          -0.001564908    0.002575549    0.002292880
     10        1           0.004826652    0.015481732   -0.003877965
 -------------------------------------------------------------------
 Cartesian Forces:  Max     0.034283013 RMS     0.013749554
 Leave Link  716 at Mon May  4 18:48:46 2020, MaxMem=  4294967296 cpu:               0.3 elap:               0.0
 (Enter /opt/gaussian/gdv-20191001-j04+/gdv/l103.exe)

 GradGradGradGradGradGradGradGradGradGradGradGradGradGradGradGradGradGrad
 Berny optimization.
 FormGI is forming the generalized inverse of G from B-inverse, IUseBI=4.
 Internal  Forces:  Max     0.028678777 RMS     0.008053206
 Search for a local minimum.
 Step number   1 out of a maximum of   45
 All quantities printed in internal units (Hartrees-Bohrs-Radians)
 RMS Force = .80532D-02 SwitMx=.10000D-02 MixMth= 1
 Mixed Optimization -- RFO/linear search
 Second derivative matrix not updated -- first step.
 ITU=  0
     Eigenvalues ---    0.00237   0.01215   0.01295   0.02681   0.02681
     Eigenvalues ---    0.06248   0.07241   0.11346   0.13882   0.16000
     Eigenvalues ---    0.16000   0.16000   0.16000   0.22000   0.22113
     Eigenvalues ---    0.28519   0.37230   0.37230   0.37230   0.37230
     Eigenvalues ---    0.37230   0.40989   0.53930   0.55473
 RFO step:  Lambda=-6.70102324D-03 EMin= 2.36824171D-03
 Linear search not attempted -- first point.
 Iteration  1 RMS(Cart)=  0.05866514 RMS(Int)=  0.00172813
 Iteration  2 RMS(Cart)=  0.00175680 RMS(Int)=  0.00009377
 Iteration  3 RMS(Cart)=  0.00000164 RMS(Int)=  0.00009376
 Iteration  4 RMS(Cart)=  0.00000000 RMS(Int)=  0.00009376
 ITry= 1 IFail=0 DXMaxC= 1.32D-01 DCOld= 1.00D+10 DXMaxT= 3.00D-01 DXLimC= 3.00D+00 Rises=F
 Variable       Old X    -DE/DX   Delta X   Delta X   Delta X     New X
                                 (Linear)    (Quad)   (Total)
    R1        2.02201   0.00863   0.00000   0.02278   0.02278   2.04479
    R2        2.02201   0.00891   0.00000   0.02350   0.02350   2.04551
    R3        2.56096  -0.02868   0.00000  -0.05253  -0.05253   2.50843
    R4        2.02201   0.00912   0.00000   0.02406   0.02406   2.04607
    R5        2.91018  -0.01978   0.00000  -0.06775  -0.06775   2.84243
    R6        2.02201   0.01732   0.00000   0.04569   0.04569   2.06769
    R7        2.70231   0.00209   0.00000   0.00502   0.00502   2.70733
    R8        2.02201   0.01645   0.00000   0.04341   0.04341   2.06541
    R9        1.81414   0.00309   0.00000   0.00550   0.00550   1.81964
    A1        2.09440  -0.00483   0.00000  -0.02900  -0.02901   2.06538
    A2        2.09440   0.00291   0.00000   0.01746   0.01745   2.11185
    A3        2.09440   0.00192   0.00000   0.01154   0.01152   2.10592
    A4        2.09440  -0.00076   0.00000   0.00200   0.00195   2.09635
    A5        2.09440   0.00829   0.00000   0.03655   0.03651   2.13090
    A6        2.09440  -0.00752   0.00000  -0.03855  -0.03860   2.05580
    A7        1.91063   0.00083   0.00000  -0.00138  -0.00136   1.90928
    A8        1.91063  -0.00495   0.00000  -0.02036  -0.02031   1.89032
    A9        1.91063  -0.00097   0.00000  -0.01145  -0.01136   1.89927
   A10        1.91063   0.00206   0.00000   0.01232   0.01221   1.92284
   A11        1.91063  -0.00102   0.00000  -0.00837  -0.00860   1.90203
   A12        1.91063   0.00407   0.00000   0.02923   0.02913   1.93976
   A13        1.91063  -0.00382   0.00000  -0.02289  -0.02289   1.88774
    D1       -0.00000  -0.00035   0.00000  -0.00662  -0.00650  -0.00650
    D2        3.14159  -0.00069   0.00000  -0.02444  -0.02456   3.11703
    D3       -3.14159  -0.00003   0.00000   0.00289   0.00301  -3.13858
    D4        0.00000  -0.00037   0.00000  -0.01493  -0.01505  -0.01505
    D5        2.61799  -0.00109   0.00000  -0.08755  -0.08763   2.53036
    D6       -1.57080  -0.00110   0.00000  -0.08577  -0.08587  -1.65667
    D7        0.52360   0.00025   0.00000  -0.06944  -0.06951   0.45409
    D8       -0.52360  -0.00143   0.00000  -0.10537  -0.10529  -0.62889
    D9        1.57080  -0.00144   0.00000  -0.10359  -0.10352   1.46727
   D10       -2.61799  -0.00008   0.00000  -0.08726  -0.08717  -2.70516
   D11        3.14159   0.00002   0.00000   0.01686   0.01679  -3.12480
   D12       -1.04720  -0.00074   0.00000   0.01025   0.01005  -1.03715
   D13        1.04720   0.00175   0.00000   0.02544   0.02571   1.07291
         Item               Value     Threshold  Converged?
 Maximum Force            0.028679     0.000450     NO 
 RMS     Force            0.008053     0.000300     NO 
 Maximum Displacement     0.132075     0.001800     NO 
 RMS     Displacement     0.059009     0.001200     NO 
 Predicted change in Energy=-3.587390D-03
 Lowest energy point so far.  Saving SCF results.
 GradGradGradGradGradGradGradGradGradGradGradGradGradGradGradGradGradGrad

 Leave Link  103 at Mon May  4 18:48:46 2020, MaxMem=  4294967296 cpu:               6.3 elap:               0.6
 (Enter /opt/gaussian/gdv-20191001-j04+/gdv/l202.exe)
                          Input orientation:                          
 ---------------------------------------------------------------------
 Center     Atomic      Atomic             Coordinates (Angstroms)
 Number     Number       Type             X           Y           Z
 ---------------------------------------------------------------------
      1          6           0        0.381038    0.081572   -1.701329
      2          1           0        0.327756   -0.420143   -2.658558
      3          1           0        1.137951    0.842635   -1.561561
      4          6           0       -0.452247   -0.233170   -0.717166
      5          1           0       -1.204255   -0.997833   -0.865786
      6          6           0       -0.379994    0.426345    0.632753
      7          1           0       -1.390341    0.535462    1.038358
      8          8           0        0.412044   -0.399193    1.495115
      9          1           0        0.444272    0.017229    2.362730
     10          1           0        0.065721    1.417622    0.517477
 ---------------------------------------------------------------------
                    Distance matrix (angstroms):
                    1          2          3          4          5
     1  C    0.000000
     2  H    1.082056   0.000000
     3  H    1.082437   1.858609   0.000000
     4  C    1.327405   2.100563   2.097401   0.000000
     5  H    2.091985   2.427924   3.058980   1.082734   0.000000
     6  C    2.479108   3.471337   2.700458   1.504149   2.225604
     7  H    3.293886   4.187150   3.639532   2.133701   2.451814
     8  O    3.232545   4.154581   3.378217   2.380914   2.923123
     9  H    4.065060   5.041647   4.069711   3.217485   3.764480
    10  H    2.609129   3.678756   2.408877   2.125500   3.059523
                    6          7          8          9         10
     6  C    0.000000
     7  H    1.094177   0.000000
     8  O    1.432656   2.081056   0.000000
     9  H    1.959492   2.321278   0.962913   0.000000
    10  H    1.092969   1.780348   2.092016   2.347203   0.000000
 Stoichiometry    C3H6O
 Framework group  C1[X(C3H6O)]
 Deg. of freedom    24
 Full point group                 C1      NOp   1
 RotChk:  IX=0 Diff= 6.47D-02
 Largest Abelian subgroup         C1      NOp   1
 Largest concise Abelian subgroup C1      NOp   1
                         Standard orientation:                         
 ---------------------------------------------------------------------
 Center     Atomic      Atomic             Coordinates (Angstroms)
 Number     Number       Type             X           Y           Z
 ---------------------------------------------------------------------
      1          6           0        1.708400   -0.364720    0.068035
      2          1           0        2.655232   -0.324304   -0.454191
      3          1           0        1.589970   -1.091201    0.861678
      4          6           0        0.711138    0.447328   -0.260674
      5          1           0        0.838392    1.168831   -1.057889
      6          6           0       -0.625074    0.391268    0.427699
      7          1           0       -1.037233    1.401984    0.503861
      8          8           0       -1.496369   -0.440388   -0.347993
      9          1           0       -2.355442   -0.462524    0.086409
     10          1           0       -0.486756   -0.012930    1.433718
 ---------------------------------------------------------------------
 Rotational constants (GHZ):          21.8743794           4.6826745           4.4698943
 Leave Link  202 at Mon May  4 18:48:46 2020, MaxMem=  4294967296 cpu:               0.9 elap:               0.1
 (Enter /opt/gaussian/gdv-20191001-j04+/gdv/l301.exe)
 Standard basis: def2TZVP (5D, 7F)
 Ernie: Thresh=  0.10000D-02 Tol=  0.10000D-05 Strict=F.
 There are   180 symmetry adapted cartesian basis functions of A   symmetry.
 There are   160 symmetry adapted basis functions of A   symmetry.
   160 basis functions,   252 primitive gaussians,   180 cartesian basis functions
    16 alpha electrons       16 beta electrons
       nuclear repulsion energy       117.1754090763 Hartrees.
 IExCor=  402 DFT=T Ex+Corr=B3LYP ScaHFX=  0.200000
 ScaDFX=  0.800000  0.720000  1.000000  0.810000  1.000000  0.000000
 ScaDFX=  0.000000  0.000000  0.000000  0.000000  0.000000  0.000000
 IRadAn=      7 IRanWt=     -1 IRanGd=            0 ICorTp=0 IEmpDi=  4
 NAtoms=   10 NActive=   10 NUniq=   10 SFac= 1.00D+00 NAtFMM=   60 NAOKFM=F Big=F
 Integral buffers will be    131072 words long.
 Raffenetti 2 integral format.
 Two-electron integral symmetry is turned on.
 Leave Link  301 at Mon May  4 18:48:46 2020, MaxMem=  4294967296 cpu:               0.9 elap:               0.1
 (Enter /opt/gaussian/gdv-20191001-j04+/gdv/l302.exe)
 NPDir=0 NMtPBC=     1 NCelOv=     1 NCel=       1 NClECP=     1 NCelD=      1
         NCelK=      1 NCelE2=     1 NClLst=     1 CellRange=     0.0.
 One-electron integrals computed using PRISM.
 One-electron integral symmetry used in STVInt
   1 Symmetry operations used in ECPInt.
 ECPInt:  NShTT=    2346 NPrTT=    6892 LenC2=    2334 LenP2D=    5925.
 LDataN:  DoStor=T MaxTD1= 6 Len=  172
 NBasis=   160 RedAO= T EigKep=  1.79D-04  NBF=   160
 NBsUse=   160 1.00D-06 EigRej= -1.00D+00 NBFU=   160
 Precomputing XC quadrature grid using
 IXCGrd= 4 IRadAn=           7 IRanWt=          -1 IRanGd=           0 AccXCQ= 0.00D+00.
 Generated NRdTot=       0 NPtTot=           0 NUsed=           0 NTot=          32
 NSgBfM=   180   180   180   180   180 MxSgAt=    10 MxSgA2=    10 SizInc=   0.000.
 Leave Link  302 at Mon May  4 18:48:47 2020, MaxMem=  4294967296 cpu:               5.2 elap:               0.5
 (Enter /opt/gaussian/gdv-20191001-j04+/gdv/l303.exe)
 DipDrv:  MaxL=1.
 Leave Link  303 at Mon May  4 18:48:47 2020, MaxMem=  4294967296 cpu:               0.3 elap:               0.1
 (Enter /opt/gaussian/gdv-20191001-j04+/gdv/l401.exe)
 Initial guess from the checkpoint file:  "propenol.chk"
 B after Tr=     0.000000   -0.000000    0.000000
         Rot=    0.999887    0.013804   -0.005237   -0.002974 Ang=   1.73 deg.
 Guess basis will be translated and rotated to current coordinates.
 JPrj=2 DoOrth=T DoCkMO=T.
 Initial guess <Sx>= 0.0000 <Sy>= 0.0000 <Sz>= 0.0000 <S**2>=-0.0000 S=-0.0000
 Generating alternative initial guess.
 ExpMin= 9.52D-02 ExpMax= 2.70D+04 ExpMxC= 9.22D+02 IAcc=3 IRadAn=         7 AccDes= 0.00D+00
 Harris functional with IExCor=  402 and IRadAn=       7 diagonalized for initial guess.
 HarFok:  IExCor=  402 AccDes= 0.00D+00 IRadAn=         7 IDoV= 1 UseB2=F ITyADJ=14 ICtDFT=  3500011
 ScaDFX=  1.000000  1.000000  1.000000  1.000000  1.000000  1.000000
 ScaDFX=  1.000000  1.000000  1.000000  1.000000  1.000000  1.000000
 FoFCou: FMM=F IPFlag=           0 FMFlag=      100000 FMFlg1=           0
         NFxFlg=           0 DoJE=T BraDBF=F KetDBF=T FulRan=T
         wScrn=  0.000000 ICntrl=       500 IOpCl=  0 I1Cent=   200000004 NGrid=           0
         NMat0=    1 NMatS0=      1 NMatT0=    0 NMatD0=    1 NMtDS0=    0 NMtDT0=    0
 Petite list used in FoFCou.
 Harris En= -193.246850347177    
 Leave Link  401 at Mon May  4 18:48:49 2020, MaxMem=  4294967296 cpu:              20.2 elap:               1.8
 (Enter /opt/gaussian/gdv-20191001-j04+/gdv/l502.exe)
 Keep R1 and R2 ints in memory in canonical form, NReq=178086546.
 FoFCou: FMM=F IPFlag=           0 FMFlag=           0 FMFlg1=           0
         NFxFlg=           0 DoJE=F BraDBF=F KetDBF=F FulRan=T
         wScrn=  0.000000 ICntrl=       600 IOpCl=  0 I1Cent=           0 NGrid=           0
         NMat0=    1 NMatS0=  12880 NMatT0=    0 NMatD0=    1 NMtDS0=    0 NMtDT0=    0
 Symmetry not used in FoFCou.
 Two-electron integral symmetry not used.
 UHF open shell SCF:
 Using DIIS extrapolation, IDIIS=  1040.
 NGot=  4294967296 LenX=  4128990976 LenY=  4128958135
 Requested convergence on RMS density matrix=1.00D-08 within 128 cycles.
 Requested convergence on MAX density matrix=1.00D-06.
 Requested convergence on             energy=1.00D-06.
 No special actions if energy rises.
 Integral accuracy reduced to 1.0D-05 until final iterations.

 Cycle   1  Pass 0  IDiag  1:
 E= -193.193913807455    
 DIIS: error= 3.33D-03 at cycle   1 NSaved=   1.
 NSaved= 1 IEnMin= 1 EnMin= -193.193913807455     IErMin= 1 ErrMin= 3.33D-03
 ErrMax= 3.33D-03  0.00D+00 EMaxC= 1.00D-01 BMatC= 1.15D-02 BMatP= 1.15D-02
 IDIUse=3 WtCom= 9.67D-01 WtEn= 3.33D-02
 Coeff-Com:  0.100D+01
 Coeff-En:   0.100D+01
 Coeff:      0.100D+01
 Gap=     0.717 Goal=   None    Shift=    0.000
 Gap=     0.717 Goal=   None    Shift=    0.000
 GapD=    0.717 DampG=2.000 DampE=1.000 DampFc=2.0000 IDamp=-1.
 RMSDP=4.46D-04 MaxDP=9.37D-03              OVMax= 2.50D-02

 Cycle   2  Pass 0  IDiag  1:
 E= -193.197677328066     Delta-E=       -0.003763520612 Rises=F Damp=F
 DIIS: error= 7.95D-04 at cycle   2 NSaved=   2.
 NSaved= 2 IEnMin= 2 EnMin= -193.197677328066     IErMin= 2 ErrMin= 7.95D-04
 ErrMax= 7.95D-04  0.00D+00 EMaxC= 1.00D-01 BMatC= 4.21D-04 BMatP= 1.15D-02
 IDIUse=3 WtCom= 9.92D-01 WtEn= 7.95D-03
 Coeff-Com:  0.169D-01 0.983D+00
 Coeff-En:   0.000D+00 0.100D+01
 Coeff:      0.168D-01 0.983D+00
 Gap=     0.263 Goal=   None    Shift=    0.000
 Gap=     0.263 Goal=   None    Shift=    0.000
 RMSDP=8.81D-05 MaxDP=2.66D-03 DE=-3.76D-03 OVMax= 7.34D-03

 Cycle   3  Pass 0  IDiag  1:
 E= -193.197684192184     Delta-E=       -0.000006864117 Rises=F Damp=F
 DIIS: error= 8.49D-04 at cycle   3 NSaved=   3.
 NSaved= 3 IEnMin= 3 EnMin= -193.197684192184     IErMin= 2 ErrMin= 7.95D-04
 ErrMax= 8.49D-04  0.00D+00 EMaxC= 1.00D-01 BMatC= 5.09D-04 BMatP= 4.21D-04
 IDIUse=3 WtCom= 2.55D-01 WtEn= 7.45D-01
 Coeff-Com: -0.257D-01 0.537D+00 0.489D+00
 Coeff-En:   0.000D+00 0.483D+00 0.517D+00
 Coeff:     -0.656D-02 0.497D+00 0.509D+00
 Gap=     0.263 Goal=   None    Shift=    0.000
 Gap=     0.263 Goal=   None    Shift=    0.000
 RMSDP=5.25D-05 MaxDP=1.70D-03 DE=-6.86D-06 OVMax= 6.45D-03

 Cycle   4  Pass 0  IDiag  1:
 E= -193.197794446829     Delta-E=       -0.000110254645 Rises=F Damp=F
 DIIS: error= 2.41D-04 at cycle   4 NSaved=   4.
 NSaved= 4 IEnMin= 4 EnMin= -193.197794446829     IErMin= 4 ErrMin= 2.41D-04
 ErrMax= 2.41D-04  0.00D+00 EMaxC= 1.00D-01 BMatC= 5.13D-05 BMatP= 4.21D-04
 IDIUse=3 WtCom= 9.98D-01 WtEn= 2.41D-03
 Coeff-Com: -0.130D-01 0.179D+00 0.290D+00 0.544D+00
 Coeff-En:   0.000D+00 0.000D+00 0.461D-01 0.954D+00
 Coeff:     -0.130D-01 0.179D+00 0.289D+00 0.545D+00
 Gap=     0.263 Goal=   None    Shift=    0.000
 Gap=     0.263 Goal=   None    Shift=    0.000
 RMSDP=1.70D-05 MaxDP=4.88D-04 DE=-1.10D-04 OVMax= 2.48D-03

 Cycle   5  Pass 0  IDiag  1:
 E= -193.197806454407     Delta-E=       -0.000012007578 Rises=F Damp=F
 DIIS: error= 8.58D-05 at cycle   5 NSaved=   5.
 NSaved= 5 IEnMin= 5 EnMin= -193.197806454407     IErMin= 5 ErrMin= 8.58D-05
 ErrMax= 8.58D-05  0.00D+00 EMaxC= 1.00D-01 BMatC= 5.72D-06 BMatP= 5.13D-05
 IDIUse=1 WtCom= 1.00D+00 WtEn= 0.00D+00
 Coeff-Com: -0.328D-02 0.134D-01 0.886D-01 0.323D+00 0.579D+00
 Coeff:     -0.328D-02 0.134D-01 0.886D-01 0.323D+00 0.579D+00
 Gap=     0.263 Goal=   None    Shift=    0.000
 Gap=     0.263 Goal=   None    Shift=    0.000
 RMSDP=5.39D-06 MaxDP=1.60D-04 DE=-1.20D-05 OVMax= 5.79D-04

 Initial convergence to 1.0D-05 achieved.  Increase integral accuracy.
 Cycle   6  Pass 1  IDiag  1:
 E= -193.197808091206     Delta-E=       -0.000001636799 Rises=F Damp=F
 DIIS: error= 1.28D-05 at cycle   1 NSaved=   1.
 NSaved= 1 IEnMin= 1 EnMin= -193.197808091206     IErMin= 1 ErrMin= 1.28D-05
 ErrMax= 1.28D-05  0.00D+00 EMaxC= 1.00D-01 BMatC= 9.78D-08 BMatP= 9.78D-08
 IDIUse=1 WtCom= 1.00D+00 WtEn= 0.00D+00
 Coeff-Com:  0.100D+01
 Coeff:      0.100D+01
 Gap=     0.263 Goal=   None    Shift=    0.000
 Gap=     0.263 Goal=   None    Shift=    0.000
 RMSDP=5.39D-06 MaxDP=1.60D-04 DE=-1.64D-06 OVMax= 9.03D-05

 Cycle   7  Pass 1  IDiag  1:
 E= -193.197808091201     Delta-E=        0.000000000005 Rises=F Damp=F
 DIIS: error= 1.01D-05 at cycle   2 NSaved=   2.
 NSaved= 2 IEnMin= 1 EnMin= -193.197808091206     IErMin= 2 ErrMin= 1.01D-05
 ErrMax= 1.01D-05  0.00D+00 EMaxC= 1.00D-01 BMatC= 1.24D-07 BMatP= 9.78D-08
 IDIUse=1 WtCom= 1.00D+00 WtEn= 0.00D+00
 Coeff-Com:  0.531D+00 0.469D+00
 Coeff:      0.531D+00 0.469D+00
 Gap=     0.263 Goal=   None    Shift=    0.000
 Gap=     0.263 Goal=   None    Shift=    0.000
 RMSDP=1.14D-06 MaxDP=2.04D-05 DE= 5.00D-12 OVMax= 6.61D-05

 Cycle   8  Pass 1  IDiag  1:
 E= -193.197808117900     Delta-E=       -0.000000026698 Rises=F Damp=F
 DIIS: error= 2.81D-06 at cycle   3 NSaved=   3.
 NSaved= 3 IEnMin= 3 EnMin= -193.197808117900     IErMin= 3 ErrMin= 2.81D-06
 ErrMax= 2.81D-06  0.00D+00 EMaxC= 1.00D-01 BMatC= 7.40D-09 BMatP= 9.78D-08
 IDIUse=1 WtCom= 1.00D+00 WtEn= 0.00D+00
 Coeff-Com:  0.219D+00 0.252D+00 0.528D+00
 Coeff:      0.219D+00 0.252D+00 0.528D+00
 Gap=     0.263 Goal=   None    Shift=    0.000
 Gap=     0.263 Goal=   None    Shift=    0.000
 RMSDP=2.60D-07 MaxDP=4.66D-06 DE=-2.67D-08 OVMax= 2.37D-05

 Cycle   9  Pass 1  IDiag  1:
 E= -193.197808119435     Delta-E=       -0.000000001536 Rises=F Damp=F
 DIIS: error= 9.48D-07 at cycle   4 NSaved=   4.
 NSaved= 4 IEnMin= 4 EnMin= -193.197808119435     IErMin= 4 ErrMin= 9.48D-07
 ErrMax= 9.48D-07  0.00D+00 EMaxC= 1.00D-01 BMatC= 6.54D-10 BMatP= 7.40D-09
 IDIUse=1 WtCom= 1.00D+00 WtEn= 0.00D+00
 Coeff-Com:  0.489D-01 0.713D-01 0.263D+00 0.617D+00
 Coeff:      0.489D-01 0.713D-01 0.263D+00 0.617D+00
 Gap=     0.263 Goal=   None    Shift=    0.000
 Gap=     0.263 Goal=   None    Shift=    0.000
 RMSDP=6.54D-08 MaxDP=2.03D-06 DE=-1.54D-09 OVMax= 7.75D-06

 Cycle  10  Pass 1  IDiag  1:
 E= -193.197808119586     Delta-E=       -0.000000000151 Rises=F Damp=F
 DIIS: error= 2.97D-07 at cycle   5 NSaved=   5.
 NSaved= 5 IEnMin= 5 EnMin= -193.197808119586     IErMin= 5 ErrMin= 2.97D-07
 ErrMax= 2.97D-07  0.00D+00 EMaxC= 1.00D-01 BMatC= 8.82D-11 BMatP= 6.54D-10
 IDIUse=1 WtCom= 1.00D+00 WtEn= 0.00D+00
 Coeff-Com: -0.198D-01-0.146D-01 0.283D-01 0.300D+00 0.706D+00
 Coeff:     -0.198D-01-0.146D-01 0.283D-01 0.300D+00 0.706D+00
 Gap=     0.263 Goal=   None    Shift=    0.000
 Gap=     0.263 Goal=   None    Shift=    0.000
 RMSDP=2.62D-08 MaxDP=7.58D-07 DE=-1.51D-10 OVMax= 2.37D-06

 Cycle  11  Pass 1  IDiag  1:
 E= -193.197808119605     Delta-E=       -0.000000000019 Rises=F Damp=F
 DIIS: error= 1.22D-07 at cycle   6 NSaved=   6.
 NSaved= 6 IEnMin= 6 EnMin= -193.197808119605     IErMin= 6 ErrMin= 1.22D-07
 ErrMax= 1.22D-07  0.00D+00 EMaxC= 1.00D-01 BMatC= 1.28D-11 BMatP= 8.82D-11
 IDIUse=1 WtCom= 1.00D+00 WtEn= 0.00D+00
 Coeff-Com: -0.138D-01-0.126D-01-0.114D-02 0.131D+00 0.406D+00 0.491D+00
 Coeff:     -0.138D-01-0.126D-01-0.114D-02 0.131D+00 0.406D+00 0.491D+00
 Gap=     0.263 Goal=   None    Shift=    0.000
 Gap=     0.263 Goal=   None    Shift=    0.000
 RMSDP=9.95D-09 MaxDP=1.71D-07 DE=-1.88D-11 OVMax= 6.80D-07

 SCF Done:  E(UB3LYP) =  -193.197808120     A.U. after   11 cycles
            NFock= 11  Conv=0.10D-07     -V/T= 2.0049
 <Sx>= 0.0000 <Sy>= 0.0000 <Sz>= 0.0000 <S**2>=-0.0000 S=-0.0000
 <L.S>= 0.000000000000E+00
 KE= 1.922531380554D+02 PE=-6.854838037957D+02 EE= 1.828574485444D+02
 Annihilation of the first spin contaminant:
 S**2 before annihilation    -0.0000,   after     0.0000
 Leave Link  502 at Mon May  4 18:49:10 2020, MaxMem=  4294967296 cpu:             233.7 elap:              21.4
 (Enter /opt/gaussian/gdv-20191001-j04+/gdv/l701.exe)
 ... and contract with generalized density number  0.
 Compute integral first derivatives.
   1 Symmetry operations used in ECPInt.
 ECPInt:  NShTT=    2346 NPrTT=    6892 LenC2=    2334 LenP2D=    5925.
 LDataN:  DoStor=T MaxTD1= 7 Len=  274
 Leave Link  701 at Mon May  4 18:49:10 2020, MaxMem=  4294967296 cpu:               2.4 elap:               0.2
 (Enter /opt/gaussian/gdv-20191001-j04+/gdv/l702.exe)
 L702 exits ... SP integral derivatives will be done elsewhere.
 Leave Link  702 at Mon May  4 18:49:10 2020, MaxMem=  4294967296 cpu:               0.2 elap:               0.0
 (Enter /opt/gaussian/gdv-20191001-j04+/gdv/l703.exe)
 Integral derivatives from FoFJK, PRISM(SPDF).
 Compute integral first derivatives, UseDBF=F ICtDFT=           0.
 Calling FoFJK, ICntrl=      2127 FMM=F ISym2X=0 I1Cent= 0 IOpClX= 1 NMat=1 NMatS=1 NMatT=0.
 FoFJK:  IHMeth= 1 ICntrl=    2127 DoSepK=F KAlg= 0 I1Cent=           0 FoldK=F
 IRaf=         0 NMat=       1 IRICut=       1 DoRegI=T DoRafI=F ISym2E= 0 IDoP0=0 IntGTp=1.
 FoFCou: FMM=F IPFlag=           0 FMFlag=      100000 FMFlg1=         800
         NFxFlg=           0 DoJE=F BraDBF=F KetDBF=F FulRan=T
         wScrn=  0.000000 ICntrl=      2127 IOpCl=  1 I1Cent=           0 NGrid=           0
         NMat0=    1 NMatS0=      1 NMatT0=    0 NMatD0=    1 NMtDS0=    0 NMtDT0=    0
 Symmetry not used in FoFCou.
 Leave Link  703 at Mon May  4 18:49:17 2020, MaxMem=  4294967296 cpu:              82.3 elap:               6.9
 (Enter /opt/gaussian/gdv-20191001-j04+/gdv/l716.exe)
 Dipole        =-1.78912010D-01 2.85101339D-01 5.11033403D-01
 ***** Axes restored to original set *****
 -------------------------------------------------------------------
 Center     Atomic                   Forces (Hartrees/Bohr)
 Number     Number              X              Y              Z
 -------------------------------------------------------------------
      1        6          -0.004797274   -0.002543040    0.001443058
      2        1           0.001667124    0.001111438   -0.001133861
      3        1           0.001222833    0.000588943   -0.001900020
      4        6           0.004045315    0.004567494    0.000984699
      5        1          -0.000291872   -0.001979559    0.001343863
      6        6          -0.000999973   -0.005830886   -0.004430943
      7        1          -0.000945334    0.001992256    0.001247990
      8        8          -0.000637340    0.000644185   -0.000209666
      9        1          -0.000325948   -0.000214559    0.001044307
     10        1           0.001062469    0.001663726    0.001610573
 -------------------------------------------------------------------
 Cartesian Forces:  Max     0.005830886 RMS     0.002280155
 Leave Link  716 at Mon May  4 18:49:17 2020, MaxMem=  4294967296 cpu:               0.2 elap:               0.0
 (Enter /opt/gaussian/gdv-20191001-j04+/gdv/l103.exe)

 GradGradGradGradGradGradGradGradGradGradGradGradGradGradGradGradGradGrad
 Berny optimization.
 Using GEDIIS/GDIIS optimizer.
 FormGI is forming the generalized inverse of G from B-inverse, IUseBI=4.
 Internal  Forces:  Max     0.004475105 RMS     0.001454126
 Search for a local minimum.
 Step number   2 out of a maximum of   45
 All quantities printed in internal units (Hartrees-Bohrs-Radians)
 RMS Force = .14541D-02 SwitMx=.10000D-02 MixMth= 1
 Mixed Optimization -- RFO/linear search
 Update second derivatives using D2CorX and points    1    2
 DE= -3.97D-03 DEPred=-3.59D-03 R= 1.11D+00
 TightC=F SS=  1.41D+00  RLast= 2.65D-01 DXNew= 5.0454D-01 7.9645D-01
 Trust test= 1.11D+00 RLast= 2.65D-01 DXMaxT set to 5.05D-01
 ITU=  1  0
 Use linear search instead of GDIIS.
     Eigenvalues ---    0.00221   0.01243   0.01289   0.02679   0.02687
     Eigenvalues ---    0.06362   0.07317   0.11381   0.13845   0.14929
     Eigenvalues ---    0.15999   0.16000   0.16144   0.20473   0.22249
     Eigenvalues ---    0.28956   0.36826   0.37230   0.37230   0.37230
     Eigenvalues ---    0.37478   0.41030   0.55368   0.56191
 RFO step:  Lambda=-1.74535073D-03 EMin= 2.21436823D-03
 Quartic linear search produced a step of  0.21337.
 Iteration  1 RMS(Cart)=  0.11375080 RMS(Int)=  0.02299164
 Iteration  2 RMS(Cart)=  0.02961828 RMS(Int)=  0.00034954
 Iteration  3 RMS(Cart)=  0.00042619 RMS(Int)=  0.00004481
 Iteration  4 RMS(Cart)=  0.00000007 RMS(Int)=  0.00004481
 ITry= 1 IFail=0 DXMaxC= 3.00D-01 DCOld= 1.00D+10 DXMaxT= 5.05D-01 DXLimC= 3.00D+00 Rises=F
 Variable       Old X    -DE/DX   Delta X   Delta X   Delta X     New X
                                 (Linear)    (Quad)   (Total)
    R1        2.04479   0.00041   0.00486  -0.00032   0.00454   2.04933
    R2        2.04551   0.00102   0.00501   0.00156   0.00658   2.05209
    R3        2.50843  -0.00022  -0.01121   0.00314  -0.00807   2.50037
    R4        2.04607   0.00142   0.00513   0.00275   0.00789   2.05396
    R5        2.84243  -0.00152  -0.01446  -0.00137  -0.01583   2.82660
    R6        2.06769   0.00153   0.00975   0.00161   0.01136   2.07905
    R7        2.70733  -0.00028   0.00107  -0.00114  -0.00007   2.70726
    R8        2.06541   0.00177   0.00926   0.00252   0.01178   2.07719
    R9        1.81964   0.00084   0.00117   0.00139   0.00256   1.82220
    A1        2.06538  -0.00297  -0.00619  -0.01928  -0.02549   2.03989
    A2        2.11185   0.00167   0.00372   0.01080   0.01450   2.12635
    A3        2.10592   0.00130   0.00246   0.00859   0.01103   2.11695
    A4        2.09635  -0.00110   0.00042  -0.00379  -0.00339   2.09296
    A5        2.13090   0.00448   0.00779   0.02099   0.02876   2.15967
    A6        2.05580  -0.00338  -0.00824  -0.01725  -0.02550   2.03030
    A7        1.90928   0.00080  -0.00029   0.00800   0.00771   1.91698
    A8        1.89032   0.00049  -0.00433   0.00616   0.00181   1.89213
    A9        1.89927   0.00164  -0.00242   0.01879   0.01634   1.91562
   A10        1.92284  -0.00088   0.00261  -0.01105  -0.00849   1.91435
   A11        1.90203  -0.00112  -0.00184  -0.01304  -0.01501   1.88702
   A12        1.93976  -0.00086   0.00621  -0.00803  -0.00192   1.93784
   A13        1.88774   0.00060  -0.00488   0.00604   0.00115   1.88890
[...]
     31  0.225991D-02 -0.855074D-02  0.126257D-01 -0.845824D-02 -0.434844D-02
     32  0.945017D-03 -0.757214D-02 -0.769573D-02  0.117150D-01 -0.413236D-02
     33 -0.112166D-02  0.362039D-02 -0.581124D-02  0.290288D-02  0.286500D-02
     34  0.537719D-03 -0.162305D-02  0.220060D-02 -0.128086D-02 -0.110149D-02
     35  0.565995D-03 -0.164273D-02  0.234152D-02 -0.182040D-02 -0.107029D-02
               31            32            33            34            35 
     31  0.168280D-01
     32 -0.425594D-02  0.151548D-01
     33 -0.656663D-02  0.214748D-02  0.181953D-01
     34  0.272217D-02 -0.759291D-03 -0.819999D-02  0.245423D-01
     35  0.291396D-02 -0.124796D-02 -0.755149D-02 -0.152962D-01  0.258426D-01
 Leave Link  716 at Mon May  4 18:56:56 2020, MaxMem=  4294967296 cpu:               0.4 elap:               0.1
 (Enter /opt/gaussian/gdv-20191001-j04+/gdv/l103.exe)

 GradGradGradGradGradGradGradGradGradGradGradGradGradGradGradGradGradGrad
 Berny optimization.
 Internal  Forces:  Max     0.000078938 RMS     0.000017531
 Search for a local minimum.
 Step number   1 out of a maximum of    2
 All quantities printed in internal units (Hartrees-Bohrs-Radians)
 Second derivative matrix not updated -- analytic derivatives used.
 ITU=  0
     Eigenvalues ---    0.00191   0.00257   0.01866   0.03153   0.04043
     Eigenvalues ---    0.05994   0.07320   0.10257   0.10571   0.11022
     Eigenvalues ---    0.12134   0.13765   0.15735   0.16769   0.22499
     Eigenvalues ---    0.30712   0.31039   0.31805   0.35154   0.35448
     Eigenvalues ---    0.35957   0.37435   0.52191   0.63289
 Angle between quadratic step and forces=  71.60 degrees.
 Linear search not attempted -- first point.
 Iteration  1 RMS(Cart)=  0.00045769 RMS(Int)=  0.00000011
 Iteration  2 RMS(Cart)=  0.00000011 RMS(Int)=  0.00000001
 ITry= 1 IFail=0 DXMaxC= 9.82D-04 DCOld= 1.00D+10 DXMaxT= 3.00D-01 DXLimC= 3.00D+00 Rises=F
 Variable       Old X    -DE/DX   Delta X   Delta X   Delta X     New X
                                 (Linear)    (Quad)   (Total)
    R1        2.04561  -0.00001   0.00000  -0.00002  -0.00002   2.04559
    R2        2.04929  -0.00000   0.00000  -0.00000  -0.00000   2.04929
    R3        2.50561   0.00000   0.00000  -0.00000  -0.00000   2.50560
    R4        2.05237  -0.00001   0.00000  -0.00003  -0.00003   2.05234
    R5        2.82301   0.00002   0.00000   0.00003   0.00003   2.82304
    R6        2.07685  -0.00003   0.00000  -0.00012  -0.00012   2.07672
    R7        2.70048   0.00008   0.00000   0.00035   0.00035   2.70082
    R8        2.07241  -0.00003   0.00000  -0.00011  -0.00011   2.07230
    R9        1.81937  -0.00000   0.00000  -0.00000  -0.00000   1.81937
    A1        2.03795  -0.00002   0.00000  -0.00018  -0.00018   2.03777
    A2        2.12319   0.00000   0.00000   0.00004   0.00004   2.12323
    A3        2.12204   0.00001   0.00000   0.00014   0.00014   2.12218
    A4        2.10012  -0.00001   0.00000  -0.00007  -0.00007   2.10006
    A5        2.17278   0.00000   0.00000   0.00002   0.00002   2.17279
    A6        2.01021   0.00001   0.00000   0.00005   0.00005   2.01027
    A7        1.90619   0.00001   0.00000   0.00015   0.00015   1.90635
    A8        1.89396  -0.00000   0.00000  -0.00007  -0.00007   1.89389
    A9        1.92096   0.00002   0.00000   0.00016   0.00016   1.92112
   A10        1.91984  -0.00001   0.00000  -0.00014  -0.00014   1.91970
   A11        1.88221  -0.00000   0.00000   0.00012   0.00012   1.88233
   A12        1.94055  -0.00002   0.00000  -0.00021  -0.00021   1.94033
   A13        1.89616  -0.00001   0.00000  -0.00015  -0.00015   1.89601
    D1        0.01855   0.00000   0.00000   0.00000   0.00000   0.01855
    D2       -3.10975   0.00000   0.00000   0.00014   0.00014  -3.10962
    D3       -3.12563  -0.00001   0.00000  -0.00016  -0.00016  -3.12579
    D4        0.02925  -0.00000   0.00000  -0.00003  -0.00003   0.02922
    D5        1.96376   0.00000   0.00000  -0.00074  -0.00074   1.96302
    D6       -2.22654  -0.00000   0.00000  -0.00086  -0.00086  -2.22740
    D7       -0.09945  -0.00001   0.00000  -0.00107  -0.00107  -0.10052
    D8       -1.16516   0.00001   0.00000  -0.00061  -0.00061  -1.16577
    D9        0.92773   0.00000   0.00000  -0.00073  -0.00073   0.92699
   D10        3.05482  -0.00001   0.00000  -0.00094  -0.00094   3.05387
   D11       -2.95341   0.00000   0.00000  -0.00023  -0.00023  -2.95364
   D12       -0.86906   0.00001   0.00000  -0.00018  -0.00018  -0.86923
   D13        1.21470  -0.00001   0.00000  -0.00025  -0.00025   1.21445
         Item               Value     Threshold  Converged?
 Maximum Force            0.000079     0.000450     YES
 RMS     Force            0.000018     0.000300     YES
 Maximum Displacement     0.000982     0.001800     YES
 RMS     Displacement     0.000458     0.001200     YES
 Predicted change in Energy=-3.587313D-08
 Optimization completed.
    -- Stationary point found.
                           ----------------------------
                           !   Optimized Parameters   !
                           ! (Angstroms and Degrees)  !
 --------------------------                            --------------------------
 ! Name  Definition              Value          Derivative Info.                !
 --------------------------------------------------------------------------------
 ! R1    R(1,2)                  1.0825         -DE/DX =    0.0                 !
 ! R2    R(1,3)                  1.0844         -DE/DX =    0.0                 !
 ! R3    R(1,4)                  1.3259         -DE/DX =    0.0                 !
 ! R4    R(4,5)                  1.0861         -DE/DX =    0.0                 !
 ! R5    R(4,6)                  1.4939         -DE/DX =    0.0                 !
 ! R6    R(6,7)                  1.099          -DE/DX =    0.0                 !
 ! R7    R(6,8)                  1.429          -DE/DX =    0.0001              !
 ! R8    R(6,10)                 1.0967         -DE/DX =    0.0                 !
 ! R9    R(8,9)                  0.9628         -DE/DX =    0.0                 !
 ! A1    A(2,1,3)              116.766          -DE/DX =    0.0                 !
 ! A2    A(2,1,4)              121.6498         -DE/DX =    0.0                 !
 ! A3    A(3,1,4)              121.5841         -DE/DX =    0.0                 !
 ! A4    A(1,4,5)              120.3283         -DE/DX =    0.0                 !
 ! A5    A(1,4,6)              124.4909         -DE/DX =    0.0                 !
 ! A6    A(5,4,6)              115.1768         -DE/DX =    0.0                 !
 ! A7    A(4,6,7)              109.2169         -DE/DX =    0.0                 !
 ! A8    A(4,6,8)              108.5159         -DE/DX =    0.0                 !
 ! A9    A(4,6,10)             110.0629         -DE/DX =    0.0                 !
 ! A10   A(7,6,8)              109.999          -DE/DX =    0.0                 !
 ! A11   A(7,6,10)             107.8428         -DE/DX =    0.0                 !
 ! A12   A(8,6,10)             111.1851         -DE/DX =    0.0                 !
 ! A13   A(6,8,9)              108.642          -DE/DX =    0.0                 !
 ! D1    D(2,1,4,5)              1.0628         -DE/DX =    0.0                 !
 ! D2    D(2,1,4,6)           -178.1758         -DE/DX =    0.0                 !
 ! D3    D(3,1,4,5)           -179.0855         -DE/DX =    0.0                 !
 ! D4    D(3,1,4,6)              1.6759         -DE/DX =    0.0                 !
 ! D5    D(1,4,6,7)            112.5151         -DE/DX =    0.0                 !
 ! D6    D(1,4,6,8)           -127.5713         -DE/DX =    0.0                 !
 ! D7    D(1,4,6,10)            -5.698          -DE/DX =    0.0                 !
 ! D8    D(5,4,6,7)            -66.7587         -DE/DX =    0.0                 !
 ! D9    D(5,4,6,8)             53.1548         -DE/DX =    0.0                 !
 ! D10   D(5,4,6,10)           175.0281         -DE/DX =    0.0                 !
 ! D11   D(4,6,8,9)           -169.2178         -DE/DX =    0.0                 !
 ! D12   D(7,6,8,9)            -49.7933         -DE/DX =    0.0                 !
 ! D13   D(10,6,8,9)            69.5973         -DE/DX =    0.0                 !
 --------------------------------------------------------------------------------
 GradGradGradGradGradGradGradGradGradGradGradGradGradGradGradGradGradGrad

 Leave Link  103 at Mon May  4 18:56:56 2020, MaxMem=  4294967296 cpu:               0.3 elap:               0.1
 (Enter /opt/gaussian/gdv-20191001-j04+/gdv/l9999.exe)

 ----------------------------------------------------------------------

 Electric dipole moment (input orientation):
 (Debye = 10**-18 statcoulomb cm , SI units = C m)
                  (au)            (Debye)         (10**-30 SI)
   Tot        0.646032D+00      0.164205D+01      0.547729D+01
   x         -0.278682D+00     -0.708340D+00     -0.236277D+01
   y          0.553078D+00      0.140578D+01      0.468919D+01
   z          0.183843D+00      0.467282D+00      0.155869D+01

 Dipole polarizability, Alpha (input orientation).
 (esu units = cm**3 , SI units = C**2 m**2 J**-1)
 Alpha(0;0):
               (au)            (10**-24 esu)      (10**-40 SI)
   iso        0.420018D+02      0.622402D+01      0.692516D+01
   aniso      0.225876D+02      0.334713D+01      0.372419D+01
   xx         0.341984D+02      0.506768D+01      0.563855D+01
   yx         0.301219D+01      0.446361D+00      0.496644D+00
   yy         0.368077D+02      0.545434D+01      0.606877D+01
   zx        -0.542887D+01     -0.804475D+00     -0.895099D+00
   zy        -0.176584D+01     -0.261671D+00     -0.291148D+00
   zz         0.549992D+02      0.815004D+01      0.906814D+01

 ----------------------------------------------------------------------

 Dipole oientation:
     6         -0.92447177          3.16579855         -0.95225629
     1         -2.11825157          4.18940287         -2.26055049
     1          0.49571835          4.25437779          0.04657283
     6         -1.18835500          0.70152009         -0.58380269
     1         -2.60526720         -0.35627371         -1.62574918
     6          0.34021770         -0.81455136          1.24222290
     1         -0.88969763         -1.47592762          2.77948693
     8          1.39627023         -2.92595557         -0.06899812
     1          2.10824091         -4.07179465          1.15176723
     1          1.82394874          0.36567197          2.07918606

 Electric dipole moment (dipole orientation):
 (Debye = 10**-18 statcoulomb cm , SI units = C m)
                  (au)            (Debye)         (10**-30 SI)
   Tot        0.646032D+00      0.164205D+01      0.547729D+01
   x          0.000000D+00      0.000000D+00      0.000000D+00
   y          0.000000D+00      0.000000D+00      0.000000D+00
   z          0.646032D+00      0.164205D+01      0.547729D+01

 Dipole polarizability, Alpha (dipole orientation).
 (esu units = cm**3 , SI units = C**2 m**2 J**-1)
 Alpha(0;0):
               (au)            (10**-24 esu)      (10**-40 SI)
   iso        0.420018D+02      0.622402D+01      0.692516D+01
   aniso      0.225876D+02      0.334713D+01      0.372419D+01
   xx         0.353226D+02      0.523427D+01      0.582391D+01
   yx        -0.259593D+01     -0.384677D+00     -0.428011D+00
   yy         0.546398D+02      0.809678D+01      0.900888D+01
   zx         0.391986D+01      0.580864D+00      0.646298D+00
   zy        -0.529556D+01     -0.784721D+00     -0.873120D+00
   zz         0.360429D+02      0.534101D+01      0.594268D+01

 ----------------------------------------------------------------------
 Unable to Open any file for archive entry.
 1\1\GINC-NODE04\Freq\UB3LYP\def2TZVP\C3H6O1\AABOUTAKA\04-May-2020\0\\#
 P Geom=AllCheck Guess=TCheck SCRF=Check GenChk UB3LYP/def2TZVP Freq\\t
 itle\\0,1\C,0.2806632337,0.1473644005,-1.7886558433\H,0.1948298814,-0.
 3943467936,-2.7219101924\H,0.8609324083,1.0633077133,-1.8072170533\C,-
 0.2977614614,-0.2858570166,-0.6769993542\H,-0.8620211847,-1.2138395247
 ,-0.678129832\C,-0.2535338697,0.4294280204,0.6337500388\H,-1.261631210
 5,0.78845629,0.8841156639\O,0.2024493829,-0.4837496075,1.6339074994\H,
 0.0716387912,-0.0827698315,2.4993733323\H,0.4063809289,1.3025326996,0.
 5638001408\\Version=ES64L-GDVRevJ.04+\State=1-A\HF=-193.200127\S2=0.\S
 2-1=0.\S2A=0.\RMSD=2.361e-09\RMSF=3.194e-05\ZeroPoint=0.0845759\Therma
 l=0.089659\ETot=-193.110468\HTot=-193.1095238\GTot=-193.1428479\Dipole
 =-0.2786823,0.5530783,0.183843\DipoleDeriv=-0.1840639,0.1631847,-0.028
 6044,0.1588881,-0.0094346,0.0885702,-0.008697,0.0720017,-0.0969295,0.1
 176375,-0.0542612,-0.0033257,-0.0438193,0.042984,-0.0873041,0.0207546,
 -0.0565968,-0.0582568,0.073636,-0.0981542,0.0323619,-0.1117814,-0.0335
 336,0.0001781,-0.0061929,-0.049233,0.0529695,-0.1206054,0.1321134,-0.0
 810509,0.1284455,0.0128027,0.016035,-0.0856003,0.0522195,0.0600582,0.0
 646674,-0.0968323,0.0473296,-0.0985063,-0.0371769,-0.0429713,0.022094,
 -0.0195355,0.0341276,0.4401137,-0.0964926,0.1898418,-0.0967808,0.45528
 04,-0.263879,0.0803777,-0.2770587,0.7308737,-0.151985,0.1045569,0.0215
 601,0.0644214,0.0057038,0.0132418,0.0583505,-0.0075551,-0.1089898,-0.5
 202643,0.0241085,-0.1858965,0.0145028,-0.5104735,0.3303454,-0.1105458,
 0.2950798,-0.7779247,0.32142,0.0456118,0.0222562,0.0506013,0.2135615,-
 0.088634,0.0205323,-0.0611448,0.1822156,-0.040556,-0.123835,-0.0144721
 ,-0.0659714,-0.1397138,0.0344181,0.0089269,0.0518228,-0.0181438\Polar=
 34.1983705,3.0121937,36.8077304,-5.4288681,-1.7658413,54.9992018\Quadr
 upole=-1.5498223,-1.1057847,2.6556071,1.1548325,-1.093542,2.0437387\PG
 =C01 [X(C3H6O1)]\NImag=0\\0.31681225,0.25284360,0.51538137,-0.17584037
 ,0.00666808,0.76669002,-0.04422336,-0.02199611,-0.01929546,0.03541366,
 -0.02159843,-0.12574293,-0.12737709,0.02487391,0.12232724,-0.01592582,
 -0.12359012,-0.26024938,0.01549671,0.13525567,0.27790194,-0.12087585,-
 0.13219545,0.00483893,0.00144362,-0.00130255,0.00096917,0.11952584,-0.
 13288828,-0.24695429,-0.00076021,-0.00710426,-0.00847412,0.00196729,0.
 14839822,0.25946871,0.00280122,-0.00438085,-0.05668107,-0.01286699,-0.
 02040162,0.00322564,-0.00839879,-0.00070834,0.05207209,-0.15559050,-0.
 09235227,0.17402426,0.00386637,0.00025944,-0.00344722,-0.00223595,-0.0
 0832553,0.01584211,0.34973865,-0.09237617,-0.14696706,0.11661567,0.007
 43962,0.00896002,-0.01577579,-0.01442312,-0.00706377,0.02366846,0.2366
 4712,0.52868588,0.17292735,0.11601491,-0.42120812,0.01547639,0.0107103
 0,-0.01994724,-0.00005280,-0.00058508,0.00314470,-0.18660575,-0.047903
 52,0.72016536,-0.00270294,-0.01455129,0.00079963,-0.00501149,0.0039954
 4,-0.00164108,0.00754411,-0.00516815,0.00420862,-0.11904376,-0.1256465
 0,0.00276577,0.11502838,-0.00668403,-0.00492229,-0.00174453,0.00366837
 ,-0.00106814,0.00122772,-0.00461427,0.00360338,-0.00001191,-0.12651451
 ,-0.24966672,-0.00408407,0.14250377,0.26310042,0.01640351,0.02452709,0
 .00277440,-0.00190941,0.00089935,0.00066671,0.00427635,0.00027704,-0.0
 0297088,0.00145761,-0.00569407,-0.05537856,-0.00691970,0.00542967,0.05
 536807,0.00513204,0.00673481,0.01607329,0.00841270,-0.00687945,0.00470
 418,-0.00574932,0.00455070,-0.00072694,-0.08109185,-0.01276268,-0.0027
 7800,0.00262798,-0.00951386,-0.01485337,0.54920855,0.00025688,0.009414
 39,0.00622851,-0.00806499,0.00344074,0.00099968,0.00365145,-0.00174734
 ,0.00332271,-0.00908648,-0.12755650,-0.06219750,-0.00068472,-0.0131879
 0,-0.02485828,0.04221651,0.52831233,0.00419864,-0.01117103,-0.02731497
 ,0.00111671,0.00092475,-0.00023646,-0.00186580,-0.00098814,0.00127221,
 0.00281206,-0.07253509,-0.17131747,0.00086760,0.00169502,0.00034508,-0
 .03601757,0.03713056,0.47455385,0.00076092,0.00085622,-0.00019577,-0.0
 0008771,0.00015040,0.00012673,-0.00012552,0.00029671,-0.00021700,0.002
 25947,-0.00103673,0.00295939,0.00028548,0.00044724,0.00049021,-0.24921
 947,0.05964895,0.05575539,0.27257024,-0.00073811,-0.00113463,-0.000805
 83,-0.00034199,0.00064115,-0.00055920,0.00020998,0.00002610,-0.0000268
 4,0.01557686,-0.00295166,-0.00708230,-0.00032369,0.00035175,0.00048129
 ,0.05874840,-0.07161110,-0.01935271,-0.07665573,0.07969966,-0.00127872
 ,-0.00269282,-0.00219426,-0.00187177,0.00144180,-0.00112880,0.00118391
 ,-0.00080897,0.00024410,0.02834358,-0.00785688,-0.01075160,-0.00098014
 ,0.00016774,0.00074956,0.06121447,-0.02391214,-0.06305761,-0.05742578,
 0.01570085,0.07340497,-0.00016232,-0.00025637,0.00020420,-0.00042115,0
 .00044620,-0.00012211,0.00041178,-0.00008764,-0.00018873,0.00367223,0.
 00048093,-0.00434713,-0.00013769,0.00048088,0.00084944,-0.07732794,0.0
 3759632,-0.01576085,-0.00813495,0.02685529,-0.02906562,0.08776713,0.00
 078420,-0.00031097,-0.00163290,0.00122878,-0.00040539,0.00011465,-0.00
 006260,0.00028663,-0.00070829,-0.00452298,0.01394938,-0.00439802,-0.00
 000690,0.00202913,0.00122104,0.03487910,-0.14284561,0.02954634,0.01118
 578,-0.01433472,0.01908228,-0.10408533,0.28829175,-0.00155101,-0.00394
 927,-0.00309789,0.00305710,-0.00137603,-0.00054708,-0.00133474,0.00067
 143,-0.00019207,-0.01236583,0.02815392,-0.04081964,0.00045432,-0.00003
 488,0.00260004,-0.04022878,0.07471005,-0.13818238,-0.00849590,0.007009
 25,-0.00201283,-0.00920290,0.08664417,0.60299309,0.00036573,-0.0003245
 7,-0.00082676,0.00029312,-0.00006651,-0.00004284,-0.00001115,0.0000294
 2,0.00005281,-0.00103932,0.00255222,-0.00213235,0.00000272,-0.00003171
 ,0.00021009,-0.00080235,-0.00537841,-0.01645027,0.00061219,-0.00081430
 ,-0.00061600,-0.01858720,0.04702525,0.07177301,0.01888195,-0.00009272,
 0.00077382,0.00090250,-0.00043454,0.00017144,0.00012057,0.00026590,-0.
 00013906,0.00008504,0.00088879,-0.00320856,0.00145751,0.00026715,0.000
 14495,0.00015883,-0.00148912,0.00690338,0.03184356,0.00069968,0.000540
 82,0.00007044,0.04365440,-0.12410363,-0.20694970,-0.04340842,0.1193048
 5,-0.00095332,-0.00068834,-0.00014803,0.00068338,-0.00027051,0.0000794
 6,-0.00022086,0.00016543,-0.00011832,-0.00146590,0.00572470,-0.0044536
 3,0.00012268,0.00002771,0.00046366,0.00535235,-0.01569760,-0.02545356,
 -0.00022809,-0.00124662,0.00254519,0.04867526,-0.15873634,-0.41114964,
 -0.05277086,0.17131952,0.43752255,0.00048404,0.00124144,0.00021805,0.0
 0031424,0.00012155,-0.00011772,0.00007245,0.00029881,-0.00050632,-0.00
 053532,-0.00087470,0.00178713,0.00140722,0.00025812,-0.00000472,-0.151
 19035,-0.12015550,0.00534409,-0.01892063,-0.02251670,0.00049608,0.0129
 2012,0.01357468,-0.00210527,0.00028432,-0.00035112,0.00080536,0.155163
 92,0.00049306,0.00046258,0.00190580,0.00073121,0.00014999,0.00023953,0
 .00007243,0.00099376,-0.00083835,-0.01257045,-0.01418102,-0.00193223,-
 0.00038511,-0.00038459,-0.00244196,-0.11648440,-0.19112239,0.00290675,
 0.00440749,0.00877263,-0.00119231,-0.00508468,-0.02255658,0.01512106,0
 .00041703,-0.00038801,-0.00059795,0.12840341,0.21825363,-0.00078149,-0
 .00073765,0.00142928,0.00011335,0.00019340,0.00023520,0.00060461,0.000
 76955,0.00000360,-0.01859490,-0.02439740,0.00056620,0.00032230,-0.0026
 7245,-0.00461808,0.00726037,0.00427400,-0.05060869,0.00723082,0.005882
 11,0.00220129,0.00895843,0.02886707,-0.00959161,0.00080318,0.00099172,
 0.00071232,-0.00591668,-0.01317034,0.05967048\\0.00000357,0.00001288,-
 0.00001256,-0.00000472,-0.00001354,-0.00000133,0.00000248,0.00000029,0
 .00001652,0.00000367,0.00002874,0.00000321,-0.00000620,-0.00000661,0.0
 0000970,0.00005290,-0.00010930,0.00006546,-0.00003108,0.00001145,-0.00
 000429,-0.00002960,0.00005288,-0.00006034,0.00000171,-0.00000454,0.000
 00442,0.00000727,0.00002776,-0.00002081\\\@
 The archive entry for this job was punched.


 I DON'T EXACTLY UNDERSTAND WHAT YOU ARE SAYING,
 BUT YOU ARE ABSOLUTELY RIGHT.
     M.S.GORDON, IN A NDSU FACULTY MEETING
 Job cpu time:       0 days  0 hours 41 minutes 52.6 seconds.
 Elapsed time:       0 days  0 hours  3 minutes 31.0 seconds.
 File lengths (MBytes):  RWF=     48 Int=      0 D2E=      0 Chk=      5 Scr=      1
 Normal termination of Gaussian DV at Mon May  4 18:56:56 2020.
